      -----------------------------------------------------------      
     |                   =====================                   |     
     |                           x T B                           |     
     |                   =====================                   |     
     |                         S. Grimme                         |     
     |          Mulliken Center for Theoretical Chemistry        |     
     |                    University of Bonn                     |     
      -----------------------------------------------------------      

   * xtb version 6.4.0 (f63f532) compiled by 'knkr256@seskscpg008.prim.scp' on 2021-04-09

   xtb is free software: you can redistribute it and/or modify it under
   the terms of the GNU Lesser General Public License as published by
   the Free Software Foundation, either version 3 of the License, or
   (at your option) any later version.
   
   xtb is distributed in the hope that it will be useful,
   but WITHOUT ANY WARRANTY; without even the implied warranty of
   MERCHANTABILITY or FITNESS FOR A PARTICULAR PURPOSE.  See the
   GNU Lesser General Public License for more details.
   
   Cite this work as:
   * C. Bannwarth, E. Caldeweyher, S. Ehlert, A. Hansen, P. Pracht,
     J. Seibert, S. Spicher, S. Grimme, WIREs Comput. Mol. Sci., 2020, 11,
     e01493. DOI: 10.1002/wcms.1493
   
   for GFN2-xTB:
   * C. Bannwarth, S. Ehlert and S. Grimme., J. Chem. Theory Comput., 2019,
     15, 1652-1671. DOI: 10.1021/acs.jctc.8b01176
   for GFN1-xTB:
   * S. Grimme, C. Bannwarth, P. Shushkov, J. Chem. Theory Comput., 2017,
     13, 1989-2009. DOI: 10.1021/acs.jctc.7b00118
   for GFN0-xTB:
   * P. Pracht, E. Caldeweyher, S. Ehlert, S. Grimme, ChemRxiv, 2019, preprint.
     DOI: 10.26434/chemrxiv.8326202.v1
   for GFN-FF:
   * S. Spicher and S. Grimme, Angew. Chem. Int. Ed., 2020, 59, 15665-15673.
     DOI: 10.1002/anie.202004239
   
   for DFT-D4:
   * E. Caldeweyher, C. Bannwarth and S. Grimme, J. Chem. Phys., 2017,
     147, 034112. DOI: 10.1063/1.4993215
   * E. Caldeweyher, S. Ehlert, A. Hansen, H. Neugebauer, S. Spicher,
     C. Bannwarth and S. Grimme, J. Chem. Phys., 2019, 150, 154122.
     DOI: 10.1063/1.5090222
   * E. Caldeweyher, J.-M. Mewes, S. Ehlert and S. Grimme, Phys. Chem. Chem. Phys.
     2020, 22, 8499-8512. DOI: 10.1039/D0CP00502A
   
   for sTDA-xTB:
   * S. Grimme and C. Bannwarth, J. Chem. Phys., 2016, 145, 054103.
     DOI: 10.1063/1.4959605
   
   in the mass-spec context:
   * V. Asgeirsson, C. Bauer and S. Grimme, Chem. Sci., 2017, 8, 4879.
     DOI: 10.1039/c7sc00601b
   * J. Koopman and S. Grimme, ACS Omega 2019, 4, 12, 15120-15133.
     DOI: 10.1021/acsomega.9b02011
   
   for metadynamics refer to:
   * S. Grimme, J. Chem. Theory Comput., 2019, 155, 2847-2862
     DOI: 10.1021/acs.jctc.9b00143
   
   for SPH calculations refer to:
   * S. Spicher and S. Grimme, J. Chem. Theory Comput., 2021, 17, 1701-1714
     DOI: 10.1021/acs.jctc.0c01306
   
   with help from (in alphabetical order)
   P. Atkinson, C. Bannwarth, F. Bohle, G. Brandenburg, E. Caldeweyher
   M. Checinski, S. Dohm, S. Ehlert, S. Ehrlich, I. Gerasimov, J. Koopman
   C. Lavinge, S. Lehtola, F. März, M. Müller, F. Musil, H. Neugebauer
   J. Pisarek, P. Pracht, J. Seibert, P. Shushkov, S. Spicher, M. Stahn
   T. Strunk, J. Stückrath, T. Rose, and J. Unsleber
   
 * started run on 2021/10/08 at 07:34:59.348     

           -------------------------------------------------
          |                Calculation Setup                |
           -------------------------------------------------

          program call               : xtb xtbopt.xyz --sp --alpb thf -P 6
          hostname                   : seskscpg010.prim.scp
          coordinate file            : xtbopt.xyz
          omp threads                :                     6
          number of atoms            :                    99
          number of electrons        :                   262
          charge                     :                     0
          spin                       :                   0.0
          first test random number   :      0.18980480736746

   ID    Z sym.   atoms
    1    7 N      1, 11
    2    6 C      2-6, 10, 12-15, 23, 24, 28, 32, 34, 38, 44, 45, 49, 53, 55,
                  59, 65, 66, 70, 74, 76, 80, 86-91, 93
    3    1 H      7-9, 16-18, 20, 25-27, 29-31, 35-37, 39-41, 46-48, 50-52,
                  56-58, 60-62, 67-69, 71-73, 77-79, 81-85, 92, 94-97, 99
    4   77 Ir     19
    5    5 B      21, 42, 63
    6    8 O      22, 33, 43, 54, 64, 75
    7   17 Cl     98

molecular fragmentation (1/2 indicates fragments):
111111111111111111111111111111111111111111111111111111111111111111111111
111111111111122222222222222
# atoms in fragment 1/2:    85    14
 fragment masses (1/2) :      730.32      125.58
CMA distance (Bohr)    :   9.127
constraining FC (au)   :  0.0500

           -------------------------------------------------
          |                 G F N 2 - x T B                 |
           -------------------------------------------------

        Reference                      10.1021/acs.jctc.8b01176
      * Hamiltonian:
        H0-scaling (s, p, d)           1.850000    2.230000    2.230000
        zeta-weighting                 0.500000
      * Dispersion:
        s8                             2.700000
        a1                             0.520000
        a2                             5.000000
        s9                             5.000000
      * Repulsion:
        kExp                           1.500000    1.000000
        rExp                           1.000000
      * Coulomb:
        alpha                          2.000000
        third order                    shell-resolved
        anisotropic                    true
        a3                             3.000000
        a5                             4.000000
        cn-shift                       1.200000
        cn-exp                         4.000000
        max-rad                        5.000000

      * Solvation model:               ALPB
        Solvent                        thf
        Parameter file                 internal GFN2-xTB/ALPB
        Dielectric constant                7.6000E+00
        Reference state                gsolv [1 M gas/solution]
        Free energy shift                  5.3248E-03 Eh       3.3414E+00 kcal/mol
        Temperature                        2.9815E+02 K
        Density                            8.8300E-01 kg/L
        Solvent mass                       7.2106E+01 g/mol
        Interaction kernel             P16
        Born radius scaling (c1)           1.7311E+00
        Born radii integrator          GBOBC
        Born offset                        0.0000E+00 a0       0.0000E+00 AA
        H-bond correction              true
        Ion screening                  false
        Surface tension                    1.0000E-05 Eh       1.5569E+01 dyn/cm
        Grid points                               230 per atom
q/qsh data taken from xtbrestart
CAMM data taken from xtbrestart

          ...................................................
          :                      SETUP                      :
          :.................................................:
          :  # basis functions                 255          :
          :  # atomic orbitals                 253          :
          :  # shells                          149          :
          :  # electrons                       262          :
          :  max. iterations                   250          :
          :  Hamiltonian                  GFN2-xTB          :
          :  restarted?                       true          :
          :  GBSA solvation                   true          :
          :  PC potential                    false          :
          :  electronic temp.          300.0000000     K    :
          :  accuracy                    1.0000000          :
          :  -> integral cutoff          0.2500000E+02      :
          :  -> integral neglect         0.1000000E-07      :
          :  -> SCF convergence          0.1000000E-05 Eh   :
          :  -> wf. convergence          0.1000000E-03 e    :
          :  Broyden damping             0.4000000          :
          ...................................................

 iter      E             dE          RMSdq      gap      omega  full diag
   1   -145.4775706 -0.145478E+03  0.276E-05    0.89       0.0  T
   2   -145.4775706  0.327930E-09  0.630E-05    0.89     159.5  T
   3   -145.4775706 -0.382926E-09  0.121E-05    0.89     831.4  T

   *** convergence criteria satisfied after 3 iterations ***

         #    Occupation            Energy/Eh            Energy/eV
      -------------------------------------------------------------
         1        2.0000           -1.0447122             -28.4281
       ...           ...                  ...                  ...
       125        2.0000           -0.3762337             -10.2378
       126        2.0000           -0.3499400              -9.5224
       127        2.0000           -0.3310505              -9.0083
       128        2.0000           -0.3226758              -8.7805
       129        2.0000           -0.3168870              -8.6229
       130        2.0000           -0.3101151              -8.4387
       131        2.0000           -0.3077794              -8.3751 (HOMO)
       132                         -0.2750670              -7.4850 (LUMO)
       133                         -0.2478381              -6.7440
       134                         -0.2447628              -6.6603
       135                         -0.2167199              -5.8972
       136                         -0.2146911              -5.8420
       ...                                ...                  ...
       253                          3.9117735             106.4448
      -------------------------------------------------------------
                  HL-Gap            0.0327123 Eh            0.8901 eV
             Fermi-level           -0.2913842 Eh           -7.9290 eV

 SCC (total)                   0 d,  0 h,  0 min,  0.110 sec
 SCC setup                      ...        0 min,  0.002 sec (  1.859%)
 Dispersion                     ...        0 min,  0.002 sec (  1.951%)
 classical contributions        ...        0 min,  0.000 sec (  0.130%)
 integral evaluation            ...        0 min,  0.030 sec ( 27.188%)
 iterations                     ...        0 min,  0.034 sec ( 30.490%)
 molecular gradient             ...        0 min,  0.042 sec ( 37.796%)
 printout                       ...        0 min,  0.001 sec (  0.527%)

         :::::::::::::::::::::::::::::::::::::::::::::::::::::
         ::                     SUMMARY                     ::
         :::::::::::::::::::::::::::::::::::::::::::::::::::::
         :: total energy            -143.652337311942 Eh    ::
         :: total w/o Gsasa/hb      -143.613888961407 Eh    ::
         :: gradient norm              0.028478845873 Eh/a0 ::
         :: HOMO-LUMO gap              0.890148240563 eV    ::
         ::.................................................::
         :: SCC energy              -145.477570643911 Eh    ::
         :: -> isotropic ES            0.237941184467 Eh    ::
         :: -> anisotropic ES          0.011276763192 Eh    ::
         :: -> anisotropic XC          0.048805529049 Eh    ::
         :: -> dispersion             -0.142105309185 Eh    ::
         :: -> Gsolv                  -0.048009261766 Eh    ::
         ::    -> Gelec               -0.009560911231 Eh    ::
         ::    -> Gsasa               -0.041325183422 Eh    ::
         ::    -> Ghb                 -0.002447982557 Eh    ::
         ::    -> Gshift               0.005324815444 Eh    ::
         :: repulsion energy           1.816325582078 Eh    ::
         :: add. restraining           0.000000000000 Eh    ::
         :: total charge               0.000000000003 e     ::
         :::::::::::::::::::::::::::::::::::::::::::::::::::::

           -------------------------------------------------
          |                Property Printout                |
           -------------------------------------------------

    * Orbital Energies and Occupations

         #    Occupation            Energy/Eh            Energy/eV
      -------------------------------------------------------------
         1        2.0000           -1.0447122             -28.4281
       ...           ...                  ...                  ...
       119        2.0000           -0.4001432             -10.8884
       120        2.0000           -0.3889587             -10.5841
       121        2.0000           -0.3873700             -10.5409
       122        2.0000           -0.3872081             -10.5365
       123        2.0000           -0.3831322             -10.4256
       124        2.0000           -0.3822892             -10.4026
       125        2.0000           -0.3762337             -10.2378
       126        2.0000           -0.3499400              -9.5224
       127        2.0000           -0.3310505              -9.0083
       128        2.0000           -0.3226758              -8.7805
       129        2.0000           -0.3168870              -8.6229
       130        2.0000           -0.3101151              -8.4387
       131        2.0000           -0.3077794              -8.3751 (HOMO)
       132                         -0.2750670              -7.4850 (LUMO)
       133                         -0.2478381              -6.7440
       134                         -0.2447628              -6.6603
       135                         -0.2167199              -5.8972
       136                         -0.2146911              -5.8420
       137                         -0.2043435              -5.5605
       138                         -0.1890638              -5.1447
       139                         -0.1521550              -4.1403
       140                         -0.1299564              -3.5363
       141                         -0.1255387              -3.4161
       142                         -0.1241172              -3.3774
       ...                                ...                  ...
       253                          3.9117735             106.4448
      -------------------------------------------------------------
                  HL-Gap            0.0327123 Eh            0.8901 eV
             Fermi-level           -0.2913842 Eh           -7.9290 eV

     #   Z          covCN         q      C6AA      α(0)
     1   7 N        2.511    -0.126    23.778     7.242
     2   6 C        2.955     0.081    26.186     8.393
     3   6 C        2.918    -0.040    29.004     8.831
     4   6 C        2.924    -0.021    28.537     8.760
     5   6 C        2.915    -0.043    29.061     8.840
     6   6 C        2.892     0.048    26.914     8.506
     7   1 H        0.926     0.052     2.300     2.372
     8   1 H        0.926     0.056     2.250     2.346
     9   1 H        0.926     0.046     2.365     2.405
    10   6 C        2.955     0.075    26.330     8.416
    11   7 N        2.570    -0.118    23.598     7.215
    12   6 C        2.891     0.044    27.002     8.520
    13   6 C        2.915    -0.045    29.108     8.847
    14   6 C        2.922    -0.024    28.615     8.772
    15   6 C        2.918    -0.046    29.133     8.851
    16   1 H        0.926     0.048     2.339     2.392
    17   1 H        0.926     0.052     2.298     2.371
    18   1 H        0.926     0.070     2.086     2.258
    19  77 Ir       5.915    -0.153   387.802    36.417
    20   1 H        0.977     0.092     1.850     2.126
    21   5 B        2.623     0.401    16.078     6.781
    22   8 O        1.638    -0.407    21.001     6.186
    23   6 C        3.834     0.130    18.448     6.111
    24   6 C        3.755    -0.121    22.880     6.820
    25   1 H        0.925     0.053     2.277     2.360
    26   1 H        0.925     0.045     2.378     2.411
    27   1 H        0.925     0.051     2.310     2.377
    28   6 C        3.754    -0.111    22.681     6.791
    29   1 H        0.925     0.048     2.345     2.395
    30   1 H        0.925     0.043     2.410     2.428
    31   1 H        0.925     0.030     2.585     2.514
    32   6 C        3.838     0.131    18.432     6.108
    33   8 O        1.637    -0.403    20.925     6.175
    34   6 C        3.755    -0.120    22.859     6.817
    35   1 H        0.925     0.051     2.302     2.372
    36   1 H        0.925     0.046     2.367     2.406
    37   1 H        0.925     0.048     2.349     2.397
    38   6 C        3.754    -0.119    22.840     6.815
    39   1 H        0.925     0.047     2.354     2.399
    40   1 H        0.925     0.052     2.300     2.372
    41   1 H        0.925     0.045     2.377     2.411
    42   5 B        2.624     0.407    16.008     6.765
    43   8 O        1.637    -0.381    20.497     6.111
    44   6 C        3.833     0.129    18.471     6.115
    45   6 C        3.755    -0.123    22.915     6.826
    46   1 H        0.925     0.052     2.301     2.372
    47   1 H        0.925     0.056     2.247     2.344
    48   1 H        0.925     0.048     2.342     2.393
    49   6 C        3.755    -0.121    22.875     6.820
    50   1 H        0.925     0.048     2.346     2.395
    51   1 H        0.925     0.045     2.383     2.414
    52   1 H        0.925     0.054     2.275     2.358
    53   6 C        3.831     0.128    18.487     6.118
    54   8 O        1.637    -0.382    20.515     6.114
    55   6 C        3.755    -0.123    22.917     6.826
    56   1 H        0.925     0.054     2.275     2.359
    57   1 H        0.925     0.053     2.280     2.361
    58   1 H        0.925     0.048     2.350     2.397
    59   6 C        3.755    -0.120    22.852     6.816
    60   1 H        0.925     0.044     2.395     2.420
    61   1 H        0.925     0.050     2.321     2.382
    62   1 H        0.925     0.050     2.326     2.385
    63   5 B        2.625     0.398    16.104     6.785
    64   8 O        1.638    -0.377    20.420     6.100
    65   6 C        3.831     0.125    18.522     6.123
    66   6 C        3.755    -0.127    22.997     6.838
    67   1 H        0.925     0.056     2.250     2.346
    68   1 H        0.925     0.053     2.283     2.363
    69   1 H        0.925     0.048     2.344     2.394
    70   6 C        3.755    -0.129    23.037     6.844
    71   1 H        0.925     0.060     2.202     2.320
    72   1 H        0.925     0.050     2.325     2.384
    73   1 H        0.925     0.053     2.284     2.363
    74   6 C        3.829     0.127    18.499     6.120
    75   8 O        1.637    -0.385    20.564     6.121
    76   6 C        3.755    -0.124    22.925     6.827
    77   1 H        0.925     0.050     2.319     2.382
    78   1 H        0.925     0.053     2.281     2.362
    79   1 H        0.925     0.054     2.276     2.359
    80   6 C        3.755    -0.123    22.913     6.825
    81   1 H        0.925     0.041     2.441     2.443
    82   1 H        0.925     0.051     2.308     2.376
    83   1 H        0.925     0.054     2.269     2.356
    84   1 H        0.926     0.052     2.289     2.366
    85   1 H        0.926     0.051     2.306     2.375
    86   6 C        2.833    -0.031    28.755     8.787
    87   6 C        2.967     0.015    27.678     8.629
    88   6 C        2.956    -0.050    29.237     8.869
    89   6 C        2.931    -0.048    29.186     8.860
    90   6 C        3.759    -0.114    22.731     6.797
    91   6 C        2.890     0.086    26.075     8.372
    92   1 H        0.926     0.062     2.172     2.305
    93   6 C        2.948    -0.055    29.360     8.887
    94   1 H        0.926     0.046     2.366     2.405
    95   1 H        0.925     0.050     2.318     2.381
    96   1 H        0.925     0.057     2.237     2.339
    97   1 H        0.925     0.040     2.453     2.449
    98  17 Cl       0.962    -0.225   106.264    15.771
    99   1 H        0.926     0.051     2.309     2.376

 Mol. C6AA /au·bohr⁶  :     107865.244335
 Mol. C8AA /au·bohr⁸  :    2926920.054056
 Mol. α(0) /au        :        509.414182


Wiberg/Mayer (AO) data.
largest (>0.10) Wiberg bond orders for each atom

 ---------------------------------------------------------------------------
     #   Z sym  total        # sym  WBO       # sym  WBO       # sym  WBO
 ---------------------------------------------------------------------------
     1   7 N    3.381 --     6 C    1.390     2 C    1.308    19 Ir   0.419
     2   6 C    3.978 --     3 C    1.355     1 N    1.308    10 C    1.086
     3   6 C    3.988 --     4 C    1.477     2 C    1.355     9 H    0.962
                             6 C    0.105
     4   6 C    3.984 --     3 C    1.477     5 C    1.388    84 H    0.969
     5   6 C    3.980 --     6 C    1.456     4 C    1.388     8 H    0.969
     6   6 C    3.978 --     5 C    1.456     1 N    1.390     7 H    0.957
                             3 C    0.105
     7   1 H    0.997 --     6 C    0.957
     8   1 H    0.996 --     5 C    0.969
     9   1 H    0.997 --     3 C    0.962
    10   6 C    3.979 --    15 C    1.358    11 N    1.305     2 C    1.086
    11   7 N    3.416 --    12 C    1.389    10 C    1.305    19 Ir   0.447
    12   6 C    3.975 --    13 C    1.454    11 N    1.389    18 H    0.951
                            15 C    0.105
    13   6 C    3.982 --    12 C    1.454    14 C    1.389    17 H    0.969
    14   6 C    3.983 --    15 C    1.474    13 C    1.389    85 H    0.969
    15   6 C    3.988 --    14 C    1.474    10 C    1.358    16 H    0.962
                            12 C    0.105
    16   1 H    0.997 --    15 C    0.962
    17   1 H    0.997 --    13 C    0.969
    18   1 H    0.995 --    12 C    0.951
    19  77 Ir   5.149 --    63 B    0.861    42 B    0.846    21 B    0.728
                            86 C    0.582    20 H    0.523    11 N    0.447
                             1 N    0.419
    20   1 H    0.989 --    19 Ir   0.523    86 C    0.355
    21   5 B    3.272 --    33 O    1.112    22 O    1.091    19 Ir   0.728
    22   8 O    2.193 --    21 B    1.091    23 C    0.942
    23   6 C    3.943 --    24 C    0.996    28 C    0.990    22 O    0.942
                            32 C    0.941
    24   6 C    3.994 --    23 C    0.996    26 H    0.984    27 H    0.983
                            25 H    0.983
    25   1 H    0.997 --    24 C    0.983
    26   1 H    0.997 --    24 C    0.984
    27   1 H    0.997 --    24 C    0.983
    28   6 C    3.996 --    23 C    0.990    31 H    0.985    29 H    0.984
                            30 H    0.984
    29   1 H    0.997 --    28 C    0.984
    30   1 H    0.998 --    28 C    0.984
    31   1 H    0.999 --    28 C    0.985
    32   6 C    3.940 --    38 C    0.997    34 C    0.991    23 C    0.941
                            33 O    0.939
    33   8 O    2.203 --    21 B    1.112    32 C    0.939
    34   6 C    3.994 --    32 C    0.991    36 H    0.984    37 H    0.982
                            35 H    0.981
    35   1 H    0.997 --    34 C    0.981
    36   1 H    0.997 --    34 C    0.984
    37   1 H    0.997 --    34 C    0.982
    38   6 C    3.994 --    32 C    0.997    41 H    0.984    39 H    0.983
                            40 H    0.983
    39   1 H    0.998 --    38 C    0.983
    40   1 H    0.997 --    38 C    0.983
    41   1 H    0.997 --    38 C    0.984
    42   5 B    3.338 --    43 O    1.119    54 O    1.112    19 Ir   0.846
    43   8 O    2.229 --    42 B    1.119    44 C    0.937
    44   6 C    3.936 --    45 C    0.996    49 C    0.991    43 O    0.937
                            53 C    0.937
    45   6 C    3.993 --    44 C    0.996    48 H    0.983    46 H    0.982
                            47 H    0.982
    46   1 H    0.997 --    45 C    0.982
    47   1 H    0.997 --    45 C    0.982
    48   1 H    0.997 --    45 C    0.983
    49   6 C    3.994 --    44 C    0.991    50 H    0.983    51 H    0.983
                            52 H    0.979
    50   1 H    0.997 --    49 C    0.983
    51   1 H    0.998 --    49 C    0.983
    52   1 H    0.997 --    49 C    0.979
    53   6 C    3.937 --    55 C    0.995    59 C    0.992    44 C    0.937
                            54 O    0.936
    54   8 O    2.227 --    42 B    1.112    53 C    0.936
    55   6 C    3.993 --    53 C    0.995    58 H    0.983    57 H    0.983
                            56 H    0.982
    56   1 H    0.997 --    55 C    0.982
    57   1 H    0.997 --    55 C    0.983
    58   1 H    0.996 --    55 C    0.983
    59   6 C    3.994 --    53 C    0.992    61 H    0.983    62 H    0.983
                            60 H    0.981
    60   1 H    0.998 --    59 C    0.981
    61   1 H    0.996 --    59 C    0.983
    62   1 H    0.997 --    59 C    0.983
    63   5 B    3.356 --    75 O    1.113    64 O    1.111    19 Ir   0.861
    64   8 O    2.230 --    63 B    1.111    65 C    0.940
    65   6 C    3.938 --    70 C    0.996    66 C    0.991    64 O    0.940
                            74 C    0.938
    66   6 C    3.993 --    65 C    0.991    69 H    0.983    68 H    0.983
                            67 H    0.979
    67   1 H    0.997 --    66 C    0.979
    68   1 H    0.997 --    66 C    0.983
    69   1 H    0.997 --    66 C    0.983
    70   6 C    3.992 --    65 C    0.996    72 H    0.984    73 H    0.982
                            71 H    0.982
    71   1 H    0.996 --    70 C    0.982
    72   1 H    0.996 --    70 C    0.984
    73   1 H    0.997 --    70 C    0.982
    74   6 C    3.936 --    76 C    0.996    80 C    0.991    65 C    0.938
                            75 O    0.936
    75   8 O    2.226 --    63 B    1.113    74 C    0.936
    76   6 C    3.993 --    74 C    0.996    77 H    0.983    79 H    0.982
                            78 H    0.982
    77   1 H    0.996 --    76 C    0.983
    78   1 H    0.997 --    76 C    0.982
    79   1 H    0.997 --    76 C    0.982
    80   6 C    3.995 --    74 C    0.991    81 H    0.984    83 H    0.983
                            82 H    0.983
    81   1 H    0.998 --    80 C    0.984
    82   1 H    0.997 --    80 C    0.983
    83   1 H    0.996 --    80 C    0.983
    84   1 H    0.996 --     4 C    0.969
    85   1 H    0.996 --    14 C    0.969
    86   6 C    3.944 --    88 C    1.369    87 C    1.367    19 Ir   0.582
                            20 H    0.355
    87   6 C    3.987 --    89 C    1.400    86 C    1.367    90 C    1.022
    88   6 C    3.987 --    91 C    1.426    86 C    1.369    92 H    0.954
                            89 C    0.102
    89   6 C    3.986 --    93 C    1.443    87 C    1.400    94 H    0.966
                            88 C    0.102
    90   6 C    3.995 --    87 C    1.022    95 H    0.976    96 H    0.971
                            97 H    0.970
    91   6 C    3.898 --    88 C    1.426    93 C    1.389    98 Cl   0.933
    92   1 H    0.996 --    88 C    0.954
    93   6 C    3.983 --    89 C    1.443    91 C    1.389    99 H    0.968
    94   1 H    0.997 --    89 C    0.966
    95   1 H    0.997 --    90 C    0.976
    96   1 H    0.996 --    90 C    0.971
    97   1 H    0.998 --    90 C    0.970
    98  17 Cl   1.056 --    91 C    0.933
    99   1 H    0.996 --    93 C    0.968
 ---------------------------------------------------------------------------

Topologies differ in total number of bonds
Writing topology from bond orders to xtbtopo.mol

molecular dipole:
                 x           y           z       tot (Debye)
 q only:       -1.017       0.128      -2.179
   full:       -1.902       0.525      -2.528       8.150
molecular quadrupole (traceless):
                xx          xy          yy          xz          yz          zz
 q only:       17.497       4.114       9.980     -15.576      11.731     -27.477
  q+dip:       19.919       4.325       4.768     -15.122      15.425     -24.686
   full:       17.867       5.533       8.142     -16.250      12.897     -26.009


           -------------------------------------------------
          | TOTAL ENERGY             -143.652337311942 Eh   |
          | GRADIENT NORM               0.028478845873 Eh/α |
          | HOMO-LUMO GAP               0.890148240563 eV   |
           -------------------------------------------------

------------------------------------------------------------------------
 * finished run on 2021/10/08 at 07:34:59.502     
------------------------------------------------------------------------
 total:
 * wall-time:     0 d,  0 h,  0 min,  0.154 sec
 *  cpu-time:     0 d,  0 h,  0 min,  0.903 sec
 * ratio c/w:     5.849 speedup
 SCF:
 * wall-time:     0 d,  0 h,  0 min,  0.112 sec
 *  cpu-time:     0 d,  0 h,  0 min,  0.667 sec
 * ratio c/w:     5.971 speedup

