99
 energy: -143.623490996239 gnorm: 0.076503436592 xtb: 6.4.0 (f63f532)
N        -0.96510000000000   -2.11530000000000   -0.24090000000000
C        -2.24700000000000   -1.69840000000000   -0.36220000000000
C        -3.14040000000000   -2.36820000000000   -1.21200000000000
C        -2.70220000000000   -3.47560000000000   -1.93050000000000
C        -1.37780000000000   -3.89880000000000   -1.78760000000000
C        -0.54290000000000   -3.18670000000000   -0.93510000000000
H         0.49810000000000   -3.45630000000000   -0.78940000000000
H        -0.99570000000000   -4.76030000000000   -2.32770000000000
H        -4.16500000000000   -2.02890000000000   -1.31830000000000
C        -2.62130000000000   -0.50950000000000    0.44100000000000
N        -1.62600000000000    0.07330000000000    1.16020000000000
C        -1.89680000000000    1.15240000000000    1.91690000000000
C        -3.17230000000000    1.70330000000000    1.99650000000000
C        -4.20510000000000    1.11740000000000    1.26270000000000
C        -3.92610000000000    0.00250000000000    0.47820000000000
H        -4.71960000000000   -0.46420000000000   -0.09520000000000
H        -3.34630000000000    2.57510000000000    2.62070000000000
H        -1.04450000000000    1.57420000000000    2.43690000000000
Ir        0.42150000000000   -0.81650000000000    0.91330000000000
H         0.87260000000000   -2.23030000000000    1.54050000000000
B         0.50670000000000    0.41560000000000   -0.81540000000000
O         0.19500000000000   -0.04700000000000   -2.09150000000000
C         0.00650000000000    1.10040000000000   -2.95430000000000
C         0.49020000000000    0.74740000000000   -4.35780000000000
H         1.51610000000000    0.37380000000000   -4.33700000000000
H         0.44730000000000    1.62240000000000   -5.01670000000000
H        -0.14740000000000   -0.03390000000000   -4.78430000000000
C        -1.50120000000000    1.39560000000000   -2.96670000000000
H        -1.75370000000000    2.21460000000000   -3.64850000000000
H        -2.03200000000000    0.49450000000000   -3.28930000000000
H        -1.85170000000000    1.65210000000000   -1.96220000000000
C         0.84230000000000    2.20670000000000   -2.22040000000000
O         0.75200000000000    1.78260000000000   -0.83690000000000
C         2.32930000000000    2.18620000000000   -2.59900000000000
H         2.74130000000000    1.18500000000000   -2.45750000000000
H         2.48870000000000    2.51300000000000   -3.63180000000000
H         2.87200000000000    2.86270000000000   -1.93200000000000
C         0.28440000000000    3.62290000000000   -2.33660000000000
H        -0.72650000000000    3.69040000000000   -1.92910000000000
H         0.92130000000000    4.31480000000000   -1.77610000000000
H         0.26430000000000    3.94810000000000   -3.38320000000000
B         1.56300000000000    0.60960000000000    1.84840000000000
O         2.92780000000000    0.55230000000000    2.15020000000000
C         3.36330000000000    1.88660000000000    2.50260000000000
C         4.53140000000000    1.78590000000000    3.47740000000000
H         4.27910000000000    1.16090000000000    4.33690000000000
H         5.39390000000000    1.33790000000000    2.97340000000000
H         4.82390000000000    2.77870000000000    3.83820000000000
C         3.79700000000000    2.56850000000000    1.19670000000000
H         4.20020000000000    3.57090000000000    1.37680000000000
H         4.56740000000000    1.95560000000000    0.72110000000000
H         2.95240000000000    2.63260000000000    0.50540000000000
C         2.05040000000000    2.50090000000000    3.09320000000000
O         1.03750000000000    1.81620000000000    2.31910000000000
C         1.89100000000000    4.00450000000000    2.88650000000000
H         1.87290000000000    4.25440000000000    1.82410000000000
H         0.94940000000000    4.34260000000000    3.33170000000000
H         2.71080000000000    4.55150000000000    3.36630000000000
C         1.82470000000000    2.13200000000000    4.56520000000000
H         1.92610000000000    1.05330000000000    4.71320000000000
H         2.52610000000000    2.65280000000000    5.22540000000000
H         0.80630000000000    2.41580000000000    4.84900000000000
B         2.27820000000000   -1.33090000000000    0.17410000000000
O         2.89460000000000   -2.57740000000000    0.38450000000000
C         4.26930000000000   -2.48200000000000   -0.07210000000000
C         5.10900000000000   -2.05380000000000    1.14010000000000
H         4.76350000000000   -1.08740000000000    1.51750000000000
H         4.98050000000000   -2.79470000000000    1.93590000000000
H         6.17420000000000   -1.99290000000000    0.89300000000000
C         4.71950000000000   -3.84660000000000   -0.58470000000000
H         4.75280000000000   -4.56130000000000    0.24420000000000
H         5.72330000000000   -3.78370000000000   -1.02010000000000
H         4.03500000000000   -4.23600000000000   -1.34170000000000
C         4.16440000000000   -1.36220000000000   -1.16300000000000
O         3.08520000000000   -0.55030000000000   -0.65400000000000
C         5.40720000000000   -0.48870000000000   -1.31550000000000
H         6.27320000000000   -1.09010000000000   -1.61530000000000
H         5.23300000000000    0.26930000000000   -2.08590000000000
H         5.64270000000000    0.02650000000000   -0.38240000000000
C         3.71800000000000   -1.89830000000000   -2.53110000000000
H         2.82530000000000   -2.52160000000000   -2.42740000000000
H         3.46090000000000   -1.05250000000000   -3.17550000000000
H         4.50570000000000   -2.48290000000000   -3.01790000000000
H        -3.38500000000000   -4.00130000000000   -2.59310000000000
H        -5.21400000000000    1.52080000000000    1.29960000000000
C         0.23590000000000   -1.68140000000000    2.96030000000000
C        -1.03131982732447   -2.05689881204792    3.46729916441937
C         1.31582497058741   -1.91162485186463    3.82072899633446
C        -1.17976925823485   -2.44450253597339    4.79928651403211
C        -2.33620220709811   -2.17223245152022    2.72717725329672
C         1.15540409966080   -2.42819488050027    5.09747690616627
H         2.31652773321806   -1.74210726755273    3.44727530600455
C        -0.10042235589391   -2.66991749176038    5.63118572114408
H        -2.17888510043583   -2.65178017401660    5.16630981339048
H        -2.96030617967458   -2.93816344235808    3.19067462354808
H        -2.18934986002987   -2.46498835373688    1.69334880672167
H        -2.90318374541308   -1.24152868020152    2.77482207074047
Cl        2.54630290122014   -2.87047335911924    6.02648089217713
H        -0.24064346649781   -3.07529174205152    6.62330460958309
99
 energy: -143.633307913413 gnorm: 0.046614516143 xtb: 6.4.0 (f63f532)
N        -0.95273957592013   -2.06941428127988   -0.29798692905960
C        -2.22841847973157   -1.64932118886238   -0.42284177500391
C        -3.13213484950634   -2.34757415866504   -1.23258949303016
C        -2.70516573493621   -3.46327350791210   -1.92999373440076
C        -1.38552529982980   -3.88263151116015   -1.78863272634920
C        -0.55190537335600   -3.15832121281329   -0.95824015126131
H         0.47847857347430   -3.44542302436907   -0.79643773603570
H        -1.01084071045893   -4.74921298831143   -2.31463187502547
H        -4.15621740247968   -2.02086590852089   -1.32673562620159
C        -2.59575360543438   -0.45571472277161    0.36049378184707
N        -1.60399086753314    0.12009995652927    1.07751932346452
C        -1.89077506804964    1.16057615649856    1.86443191876341
C        -3.16420674229529    1.69330033967295    1.97587389809135
C        -4.19515083467526    1.11245328505043    1.24596048901799
C        -3.90864069287071    0.02371278134013    0.44076940711027
H        -4.70597358528955   -0.45487572172385   -0.10717822208818
H        -3.34266354767250    2.54520969635631    2.61778949820781
H        -1.05201697873674    1.56483874079602    2.41215465986334
Ir        0.42150000000001   -0.81649999999999    0.91329999999998
H         0.87260000000001   -2.23030000000000    1.54050000000000
B         0.49758355015563    0.42204132564470   -0.79349915370513
O         0.17972669195692   -0.03502578038671   -2.06615774074194
C         0.01309920454445    1.09791277163403   -2.94513849547108
C         0.49210995951601    0.74902396669762   -4.35041285396154
H         1.51121915967030    0.37255204814093   -4.32905385389120
H         0.44745696155738    1.62436552020833   -4.99905428896996
H        -0.14627844675521   -0.02707080550315   -4.77130881493758
C        -1.49155527867123    1.39993439840694   -2.97043397170277
H        -1.73119052340824    2.21323270675038   -3.65378180038602
H        -2.02171099373433    0.50303583373888   -3.29089562825809
H        -1.83838536702969    1.65436701271426   -1.96873115751040
C         0.83537396910061    2.20709700171934   -2.21287836119298
O         0.75849926532379    1.77853114783626   -0.83622505258276
C         2.31847474890687    2.19087522211603   -2.59921651615872
H         2.72304888540673    1.19169125545592   -2.45011103806269
H         2.47160287709616    2.51324302112132   -3.62845085352320
H         2.86049684943374    2.86476831994442   -1.93666091374142
C         0.28353964981859    3.62343528243193   -2.33856056064405
H        -0.72015684043518    3.69194002600230   -1.92708342464858
H         0.92243237375076    4.30699414313219   -1.78081328345109
H         0.26638486616071    3.93753980187835   -3.38232639123773
B         1.56441701387445    0.61185522521895    1.86385843508913
O         2.92531897100579    0.56179219386331    2.14068203240937
C         3.36293458540235    1.88424080374752    2.51067936442321
C         4.53257752217110    1.78738332627252    3.48175540002114
H         4.28009252047983    1.15967356321065    4.33233715609366
H         5.38789967738169    1.34231492294159    2.97500149992918
H         4.81577661868495    2.77756942812543    3.83784904974121
C         3.79877947767147    2.57110594661906    1.21140185839037
H         4.20045728796917    3.56681189263013    1.39503032439985
H         4.56327474344932    1.95985396805699    0.73464751258094
H         2.95131599928705    2.62433466113619    0.52913828900852
C         2.05271627341909    2.50295232041850    3.09072891705672
O         1.04081220481024    1.80681228411190    2.33690948005154
C         1.89380184016755    4.00531402664486    2.88986864910001
H         1.86972578617654    4.24926246896330    1.83156357159878
H         0.95607227298364    4.33492297022169    3.33565418968943
H         2.71368295292915    4.54181756137116    3.36688009866884
C         1.82992712428816    2.13799032512314    4.56279948202587
H         1.93229256800520    1.06216887064143    4.70153313647760
H         2.53027906732289    2.65873430290841    5.21335662796124
H         0.81511565466808    2.41616160664205    4.84671233322149
B         2.27820000000017   -1.33089999999995    0.17410000000013
O         2.90032459234285   -2.56212149541569    0.39074426313466
C         4.26526630545010   -2.48397721064507   -0.07669160336651
C         5.10902873916938   -2.05939962299471    1.13021446989287
H         4.75413555878591   -1.09901640080001    1.50235383290009
H         4.97780083826536   -2.79508848857176    1.92312348448570
H         6.16718166092236   -1.99963833947677    0.88009018978737
C         4.71970037365258   -3.84635417072189   -0.58673629190107
H         4.74893615031525   -4.55135883206564    0.24290008998396
H         5.71782238691829   -3.77543414530448   -1.01830317836702
H         4.03443929307220   -4.23338452202250   -1.33618701284071
C         4.16643280545312   -1.36078370191601   -1.15711582967303
O         3.07465618739724   -0.56363932566895   -0.66107158402744
C         5.40995587667101   -0.49245326302301   -1.31409002741181
H         6.26645984833569   -1.09776660948066   -1.60994668542083
H         5.23205763535459    0.25934323724235   -2.08192669721966
H         5.63792508564156    0.02150313043231   -0.38468851310572
C         3.72865885710425   -1.89926573234857   -2.52561756155630
H         2.83639685404436   -2.51463614812551   -2.41774503109000
H         3.47171519540056   -1.05730581515495   -3.16715629287699
H         4.51808479020659   -2.47662216158924   -3.00405647184184
H        -3.38639964311143   -3.99539693805531   -2.57981906502026
H        -5.20295137391479    1.50278367541269    1.30202557283723
C         0.23590000000014   -1.68139999999977    2.96030000000011
C        -1.02407709352546   -2.06534266119282    3.48387046495171
C         1.32485212023196   -1.89387923310440    3.81952095251599
C        -1.15554969989503   -2.44454539355482    4.81826591577912
C        -2.32911211775030   -2.19638533838767    2.74695578649495
C         1.17688353171967   -2.40242750828082    5.09953301212876
H         2.32147101576335   -1.71682406037909    3.44321625539749
C        -0.07142434506346   -2.65313870591282    5.64123871794217
H        -2.14790424316377   -2.65913537688870    5.19323488672687
H        -2.94456256093012   -2.96380965780127    3.21451364479595
H        -2.17716176360502   -2.49431133697085    1.72070038657841
H        -2.89932989431091   -1.26935269439183    2.78753172988696
Cl        2.57924694784506   -2.82663610495629    6.02743813025897
H        -0.20031879848661   -3.05310505001539    6.63486699152062
99
 energy: -143.637338663993 gnorm: 0.035718361615 xtb: 6.4.0 (f63f532)
N        -0.94396972176088   -2.04866717432988   -0.32292387474451
C        -2.21258657146640   -1.61956190989839   -0.45835837185599
C        -3.11984328575156   -2.31629626602897   -1.26250193272679
C        -2.70618227992141   -3.44078561903642   -1.94456004669623
C        -1.38914146205906   -3.86226035236626   -1.80229771301316
C        -0.55649083624554   -3.13611360578956   -0.97884034743961
H         0.46783800100984   -3.43540759183944   -0.81257643090981
H        -1.02473835423234   -4.73899098466983   -2.31164018151730
H        -4.14321569542272   -1.99393072084819   -1.34678991748537
C        -2.57807847637376   -0.44187144968620    0.32987319678165
N        -1.59081098562001    0.12363671186487    1.05374199688584
C        -1.88206515564093    1.16200841430971    1.82806753194497
C        -3.15078067803134    1.69321842854202    1.94603901108015
C        -4.18149284334480    1.11502639982882    1.21575376237561
C        -3.88857930752514    0.03998694979106    0.40278932217412
H        -4.68268566232764   -0.43741109592202   -0.14429099080253
H        -3.33495931126381    2.52402834593029    2.60872381306856
H        -1.05123072107764    1.56525115870313    2.38384028258480
Ir        0.42150000000001   -0.81649999999999    0.91329999999996
H         0.87260000000002   -2.23030000000000    1.54050000000000
B         0.51272272030997    0.43138799664613   -0.77329641261217
O         0.16800081801924   -0.02351527231988   -2.03765857156456
C         0.01553248604781    1.09661567971691   -2.92662538063949
C         0.49702105948005    0.74582746604985   -4.33096928999377
H         1.51192263885180    0.36606719167233   -4.31197099305608
H         0.45119745924847    1.62469362874254   -4.96821528755930
H        -0.14513672273708   -0.02360900643035   -4.75023453606713
C        -1.48733119666513    1.40740324302508   -2.97043467322359
H        -1.70873963204901    2.21698209378965   -3.65835284874108
H        -2.01659155913692    0.51351905748895   -3.29238313565617
H        -1.83562079451046    1.66367733376341   -1.97253502624017
C         0.83286383438742    2.20801580360410   -2.19990391811453
O         0.77072811293062    1.78118539790102   -0.82901844065441
C         2.31289659812718    2.19725663811927   -2.59699305269026
H         2.71306821303406    1.19937500696610   -2.44140741773220
H         2.45354748864844    2.51345428395616   -3.62600579721400
H         2.85442563414065    2.87369429287439   -1.94116218192419
C         0.27937153885234    3.62302324949842   -2.33384479168920
H        -0.71983916847824    3.69632140145987   -1.91946003769543
H         0.92285677471402    4.30348479989362   -1.78393213960556
H         0.26409491352310    3.92136490080121   -3.37812408656685
B         1.56815430539215    0.61306030440187    1.87877763833958
O         2.92410476578167    0.56889461659875    2.13449713468802
C         3.36204243909516    1.88138150714263    2.51770024872697
C         4.53041158301157    1.78541264573525    3.49065608557397
H         4.28045821869614    1.15368900550026    4.33526796196605
H         5.38244349155223    1.34659976784201    2.97994044042838
H         4.80334102402170    2.77500179309367    3.84371011794089
C         3.80233376176809    2.57702875562512    1.22534568668821
H         4.20086838078034    3.56808902890010    1.41646314586386
H         4.56514247097462    1.96802258932276    0.74884272864769
H         2.95292878013972    2.62339275887086    0.54874000884991
C         2.05354821488351    2.49983029129530    3.09398754420047
O         1.04379352188279    1.79488776306573    2.35587534249549
C         1.89626991066885    4.00194907928695    2.89202866564433
H         1.86565554827001    4.24385224839743    1.83623446950660
H         0.96315578218503    4.32675038569806    3.34260520116872
H         2.71887232872271    4.52875270567776    3.36562566171297
C         1.83901312497975    2.14318170603994    4.56970655223663
H         1.94381400826858    1.06905496001144    4.70152937902503
H         2.54049505077419    2.66707513844157    5.20977696276533
H         0.82605782980885    2.41735136599850    4.85310304320955
B         2.27820000000034   -1.33089999999990    0.17410000000026
O         2.90243267013230   -2.54896480733520    0.39932361663845
C         4.25773337976306   -2.48342868471744   -0.07693823269799
C         5.11113511927572   -2.06396291792190    1.12398644714346
H         4.75034538941455   -1.10721629173278    1.49293117865697
H         4.97890218629421   -2.79808066266583    1.91389385748886
H         6.16342337554642   -2.00568898656309    0.86667722617814
C         4.71198419315185   -3.84522216223984   -0.58913053070550
H         4.74170878572851   -4.54298175350309    0.24196703627489
H         5.70613011559136   -3.76498565953098   -1.01787738461720
H         4.02716952320844   -4.23293314710111   -1.33414828105757
C         4.16310206333536   -1.36087184747069   -1.15347804318519
O         3.06266155671842   -0.57429736309686   -0.66878125191058
C         5.40853298001949   -0.49541469253771   -1.30675744311550
H         6.25619346316805   -1.10830223282811   -1.59728545743653
H         5.23183346940515    0.24993580389621   -2.07636632577584
H         5.63261467155935    0.01942742639461   -0.38032905780856
C         3.73981954761953   -1.90223507146614   -2.52571417437395
H         2.84823425835595   -2.51342597159198   -2.41627356554154
H         3.48660233594313   -1.06187820611801   -3.16648265408814
H         4.53486512766653   -2.47466824241911   -2.99145696240291
H        -3.39359981935116   -3.98635759808508   -2.57174892489728
H        -5.19200844718741    1.48711384854762    1.29411336401433
C         0.23590000000027   -1.68139999999955    2.96030000000021
C        -1.01340486348052   -2.07552985093827    3.49678675147082
C         1.33822933873935   -1.86487795303863    3.81403307033402
C        -1.12444943182494   -2.44774366552301    4.83564663277588
C        -2.30894249981580   -2.20414105804988    2.74042120275874
C         1.20942524318161   -2.35838147283441    5.09989654582623
H         2.32854292144112   -1.67261985138832    3.43051842314898
C        -0.03010124967678   -2.62536318955192    5.65232665935242
H        -2.10833542015245   -2.67147599655743    5.22449318038036
H        -2.92237780683420   -2.97465674996901    3.20526365227469
H        -2.14316107480780   -2.49236834168403    1.71273079363842
H        -2.87878556785552   -1.27742393429060    2.77413320175238
Cl        2.63090008007406   -2.74003355914289    6.02840430283064
H        -0.14097216704248   -3.01082683230675    6.65328052125923
99
 energy: -143.639861645023 gnorm: 0.033472794657 xtb: 6.4.0 (f63f532)
N        -0.93147720326113   -2.03052792621683   -0.35329213650858
C        -2.19733438663600   -1.59321357798975   -0.49559542464426
C        -3.11014462968781   -2.28903430961673   -1.29552594165269
C        -2.70812226326153   -3.42589447980915   -1.96350286645938
C        -1.39131139518109   -3.85311049397679   -1.81995002230404
C        -0.55296562546464   -3.12257133172498   -1.00478151128518
H         0.46948393593075   -3.42953227515846   -0.83932826109111
H        -1.03522642412148   -4.73948466115748   -2.31758757831785
H        -4.13007181352748   -1.95723988613502   -1.38306943512846
C        -2.55822138211411   -0.41628690718112    0.28693692955437
N        -1.57382156327153    0.14050480839222    1.02304564645099
C        -1.87057267547703    1.17314277171358    1.80228323981024
C        -3.14164207421327    1.69735003686378    1.92798210497822
C        -4.17192649926282    1.12154194909262    1.19128310891688
C        -3.87039328966126    0.06386902330645    0.35881380271741
H        -4.66011306135020   -0.40962186048400   -0.19760471874391
H        -3.32896916564842    2.51811512008871    2.60029169774122
H        -1.04284845720554    1.58207824998699    2.35829569263141
Ir        0.42150000000002   -0.81649999999998    0.91329999999994
H         0.87260000000003   -2.23030000000001    1.54050000000000
B         0.50621116471115    0.44717962998165   -0.75430763516456
O         0.15415236395463   -0.01349780444107   -2.01426585250075
C         0.01284563056765    1.09845078899792   -2.90814353429730
C         0.50188957972662    0.73953345985030   -4.30890809639532
H         1.51481616822727    0.35446713767400   -4.28735454771265
H         0.46100221280525    1.62056530867516   -4.94294401415107
H        -0.14449228674394   -0.02569626737092   -4.72944739748148
C        -1.48916685579097    1.41706476190580   -2.96909366373500
H        -1.69428724093236    2.22540507392573   -3.66305623302735
H        -2.01867833498459    0.52461716998239   -3.29445807307108
H        -1.84603126647951    1.67905038576034   -1.97581730729831
C         0.83210058297692    2.21134973260037   -2.18546233636078
O         0.77978514390084    1.79104378499301   -0.81611549583480
C         2.31034080575447    2.20312324293983   -2.59347118933635
H         2.71204758689291    1.20654666793999   -2.43333934171431
H         2.43988858960561    2.51263710851947   -3.62559678880194
H         2.85316789653453    2.88620071227931   -1.94569807812711
C         0.27533673410295    3.62556264253811   -2.32545138491207
H        -0.72244153160743    3.70290702160068   -1.90822129994276
H         0.92263295487680    4.30998781307317   -1.78496528521230
H         0.25679425712884    3.91094230787290   -3.37304923911738
B         1.57141616627276    0.61369441110736    1.88490205194905
O         2.92543285056421    0.57128393459447    2.12823741390172
C         3.36222272731324    1.87822198889601    2.52271426283915
C         4.52883155967247    1.77991262648180    3.49950008699320
H         4.28121914207724    1.14276090402481    4.34082537641751
H         5.38355014919109    1.34879808297053    2.98663797763912
H         4.79398779722447    2.76999697342965    3.85636945569982
C         3.80686664507407    2.58447092347561    1.23632540541051
H         4.20154806797203    3.57464090924986    1.43702134009662
H         4.57308750745748    1.97959741932518    0.75987658968814
H         2.95845482261386    2.63151974142079    0.55876309897200
C         2.05402376114370    2.49431422220592    3.10204556123663
O         1.04402034574010    1.78476629694622    2.37344759674386
C         1.89599848949789    3.99685188532988    2.89570307821849
H         1.85854318549563    4.23797639789394    1.83976511067528
H         0.96678987583860    4.32275817027459    3.35344308788636
H         2.72375176078183    4.52028553726394    3.36341073897561
C         1.84955597425918    2.14578732235274    4.58245896053267
H         1.95818606801109    1.07238276279571    4.71602699306281
H         2.55394835520563    2.67550219914133    5.21398623609082
H         0.83704152560978    2.41850947675119    4.86812792248027
B         2.27820000000056   -1.33089999999983    0.17410000000043
O         2.90258876921334   -2.54246506598813    0.40949485564732
C         4.25138788978836   -2.48265474981145   -0.07467562217100
C         5.11522990443299   -2.06654653095340    1.12138432047337
H         4.75583797153221   -1.11006751398353    1.49221124709578
H         4.98564099764802   -2.80232275926375    1.91004557703843
H         6.16498710076594   -2.00956991028613    0.85572554066744
C         4.70128599066489   -3.84608207846818   -0.58997485688836
H         4.73442211444967   -4.54235712130432    0.24209787721187
H         5.69385647627011   -3.76163881290859   -1.02071314163847
H         4.01498144896242   -4.23464091988092   -1.33325031520530
C         4.15868904800047   -1.36178527445605   -1.15304223119249
O         3.05357642613183   -0.57933053853036   -0.67735791527565
C         5.40534238552863   -0.49548101528178   -1.29885757041296
H         6.25101339766222   -1.11412639706332   -1.58228413069207
H         5.23413490073548    0.24639452862759   -2.07296241829312
H         5.62594450052216    0.02184877968006   -0.37294063738926
C         3.74960254067951   -1.90589338413448   -2.52979006054226
H         2.85828523570005   -2.51800394176171   -2.42569107711539
H         3.50257414565909   -1.06589851381865   -3.17354552242133
H         4.55171224427196   -2.47720436183992   -2.98382555418192
H        -3.40265886598275   -3.97880748122582   -2.57619418572588
H        -5.18489760571356    1.48302443372311    1.27927058658490
C         0.23590000000044   -1.68139999999927    2.96030000000033
C        -1.00044681201700   -2.08627411823551    3.51040547032161
C         1.35254464575009   -1.82956706420088    3.80521792864623
C        -1.09291276415030   -2.45031509901822    4.85278202606495
C        -2.28927948093778   -2.22246699690558    2.74630568931601
C         1.24417970893803   -2.30243574511311    5.09949454951643
H         2.33552796708662   -1.62145855328540    3.41019999717262
C         0.01385890707217   -2.59086501741970    5.66371368849963
H        -2.06832483415344   -2.69178644595851    5.25382438856820
H        -2.90423723182224   -2.99444793364116    3.20646244694609
H        -2.10666834488408   -2.50733773050155    1.71919599677143
H        -2.85929408535387   -1.29528940398783    2.77008925147093
Cl        2.68612852565684   -2.62702925527568    6.02949109691112
H        -0.07695880654325   -2.95973316713126    6.67369595325368
99
 energy: -143.642011353444 gnorm: 0.032851031079 xtb: 6.4.0 (f63f532)
N        -0.92207751726851   -2.02670712558183   -0.36972177245004
C        -2.18445882073586   -1.57774504401965   -0.52177634502968
C        -3.09816798199074   -2.26300868562374   -1.33084486836588
C        -2.70676692853850   -3.41048917698548   -1.98670487655791
C        -1.39230502937722   -3.84758895372926   -1.83806781344416
C        -0.54853446875699   -3.11878417535557   -1.02537528772561
H         0.47425111760946   -3.42902931942441   -0.86603378633613
H        -1.04295862972413   -4.73997014645754   -2.32969605261320
H        -4.11177952975015   -1.91363688901605   -1.43210018751418
C        -2.54266114950060   -0.40246632536437    0.26108528863837
N        -1.56099426906111    0.14573715258358    1.01143216140956
C        -1.85897392250911    1.18501057913865    1.78379130185169
C        -3.13126372627914    1.70683803161728    1.90704015265884
C        -4.15949113118168    1.13531722688653    1.16112886363120
C        -3.85232376574241    0.08898792058571    0.31759877032727
H        -4.63456244013068   -0.36953461723922   -0.26311339786896
H        -3.32126598841102    2.52057287252727    2.58637932150455
H        -1.03282395667536    1.59867361113526    2.33994347270462
Ir        0.42150000000003   -0.81649999999998    0.91329999999991
H         0.87260000000004   -2.23030000000001    1.54050000000000
B         0.51310864490965    0.46142476122395   -0.73706320469796
O         0.14006461529356   -0.00233283306424   -1.99031684303921
C         0.00814556118377    1.10279394052364   -2.88841382185257
C         0.50368617265802    0.73155695982117   -4.28464413870385
H         1.51365606096907    0.33773938360199   -4.25389031128143
H         0.47449219063703    1.61038460291449   -4.92364072635650
H        -0.14650074280754   -0.03119624279583   -4.70548498023241
C        -1.49230527133329    1.43006338709508   -2.96549105273414
H        -1.68384666915350    2.23672119387346   -3.66610877002166
H        -2.02333277450701    0.53904820494283   -3.29382912902560
H        -1.86145966093379    1.69965507840256   -1.97808749602413
C         0.83115274779410    2.21888987245553   -2.17114242609622
O         0.79035913979012    1.80291045653737   -0.80176800482917
C         2.30735442112952    2.21292568140079   -2.58976112158184
H         2.71427457032593    1.21887521817225   -2.42419187904300
H         2.42699702554202    2.51365666141323   -3.62617190843450
H         2.85245088059845    2.90477204865388   -1.95228639886385
C         0.26977071782379    3.63172030040446   -2.31545216009368
H        -0.72589347867338    3.71020990033823   -1.89190596362216
H         0.91969600019582    4.32349592947770   -1.78608179373753
H         0.24196965373197    3.90767750224075   -3.36619972674322
B         1.57304955250886    0.61108698552508    1.89199006747576
O         2.92915604845827    0.57287525102436    2.11973619537458
C         3.36455094858304    1.87538120592341    2.52855439844113
C         4.53000139931846    1.77121765162869    3.50767918744872
H         4.28380315488266    1.12525914929496    4.34366533516182