27
 energy: -38.482983400862 gnorm: 0.071222594809 xtb: 6.4.1 (1a32961)
C        -0.55685000000000   -1.28801000000000   -0.48612000000000
C        -1.20849000000000   -0.05816000000000   -0.49943000000000
C        -0.52934000000000    1.08586000000000   -0.06775000000000
C        -1.31068000000000    2.37314000000000   -0.02040000000000
O        -2.54369000000000    2.25591000000000   -0.01632000000000
N        -0.72658000000000    3.65315000000000   -0.01534000000000
C         0.70143000000000    3.97947000000000    0.04314000000000
C         1.29631000000000    4.24335000000000   -1.33280000000000
C        -1.64422000000000    4.79491000000000   -0.09258000000000
C        -2.04314000000000    5.31291000000000    1.28039000000000
N         0.75445000000000    1.04174000000000    0.36455000000000
C         1.35822000000000   -0.16883000000000    0.38009000000000
C         0.75478000000000   -1.34653000000000   -0.03275000000000
H        -1.07326000000000   -2.18678000000000   -0.81253000000000
H        -2.24082000000000    0.00410000000000   -0.83214000000000
H         1.27187000000000    3.20777000000000    0.55369000000000
H         0.81133000000000    4.87955000000000    0.65993000000000
H         1.29828000000000    3.33707000000000   -1.94534000000000
H         2.32841000000000    4.59586000000000   -1.23504000000000
H         0.73402000000000    5.01150000000000   -1.87393000000000
H        -2.54938000000000    4.50685000000000   -0.64043000000000
H        -1.17475000000000    5.59512000000000   -0.67429000000000
H        -2.51395000000000    4.52845000000000    1.88136000000000
H        -2.75433000000000    6.13896000000000    1.17837000000000
H        -1.17289000000000    5.68203000000000    1.83212000000000
H         2.38056000000000   -0.17459000000000    0.75035000000000
H         1.28468000000000   -2.29233000000000    0.01076000000000
27
 energy: -38.489158222977 gnorm: 0.031129436493 xtb: 6.4.1 (1a32961)
C        -0.55613909924289   -1.26112161415119   -0.48188529605841
C        -1.19866053722094   -0.03302169075520   -0.49584348877371
C        -0.51571154145918    1.10649295081749   -0.06426343360558
C        -1.30349649020757    2.38775429204766   -0.03150363665771
O        -2.53169672849689    2.28529615623857   -0.02947892818125
N        -0.72932765982202    3.63083855498188   -0.02019215548618
C         0.68772782229308    3.95525072793311    0.03911698045928
C         1.28797050606469    4.22887619999513   -1.33624306142682
C        -1.63619767683513    4.77330121509127   -0.08720621172379
C        -2.03383054740699    5.30399777679672    1.28495918513541
N         0.75011489853442    1.04986309156539    0.36621241254467
C         1.35095664089588   -0.13966273134148    0.38196459945493
C         0.75184772235388   -1.31937557946835   -0.02673674394861
H        -1.07021537974783   -2.15441328661243   -0.81199261992658
H        -2.22497033093655    0.04310617065868   -0.82630565944345
H         1.23065395892755    3.14920690945003    0.53239813020643
H         0.78552452247789    4.85465572754679    0.65890845089971
H         1.28660674389105    3.32680631006992   -1.94543216315943
H         2.31646178830707    4.57135525087509   -1.22732742509703
H         0.73041262465386    5.00069261615555   -1.86722362343335
H        -2.53577791230005    4.46564802226697   -0.62991895254113
H        -1.14982794391909    5.56609011317356   -0.66337521659945
H        -2.51078680496997    4.51964224013744    1.87062101712866
H        -2.74018242285243    6.12614861248621    1.17345530450897
H        -1.16643902905557    5.66846564772673    1.83504076456264
H         2.37017258932231   -0.13541369828723    0.74845547225455
H         1.28678028675142   -2.25800998539831    0.01135629890723
27
 energy: -38.490665946236 gnorm: 0.006586078366 xtb: 6.4.1 (1a32961)
C        -0.54992544428608   -1.23304121287779   -0.48204684093547
C        -1.19274739430182   -0.00828719843298   -0.49540184472764
C        -0.51053034650556    1.12967653023053   -0.05913893141914
C        -1.31048386558723    2.40186114978295   -0.03280585145969
O        -2.53909462574133    2.29490388639752   -0.04750379036125
N        -0.73907724535580    3.61540252175720   -0.02141568576957
C         0.67571803339696    3.92627444219098    0.03933293787903
C         1.27778132224815    4.20449795672738   -1.33794117836093
C        -1.63034930389907    4.76569739470408   -0.09011824021147
C        -2.02369783369790    5.29065968536536    1.28811821802647
N         0.74418023524961    1.06876937362167    0.37105287279968
C         1.35035418529327   -0.10456246202492    0.38673679030766
C         0.75745573043074   -1.28831528995775   -0.02462289601289
H        -1.06149927056037   -2.12445772193124   -0.81293004301545
H        -2.21543639673321    0.08123161637030   -0.82564294536882
H         1.19835780536536    3.09338091150612    0.51219879716078
H         0.78059433743458    4.81757579344563    0.66530943604072
H         1.26502608143277    3.30620612627749   -1.94840470652916
H         2.30686458942262    4.53313291212977   -1.22174604193855
H         0.72613458512397    4.98416411188440   -1.85826843167927
H        -2.53041933252684    4.45430229473136   -0.62556614011124
H        -1.12896471754203    5.55090208896531   -0.66078739512260
H        -2.50827338528388    4.50495239988260    1.86150454860122
H        -2.72119218984881    6.11561588903078    1.17251070785951
H        -1.15434618477460    5.64329938520456    1.83743243569188
H         2.36779625924550   -0.09031716367103    0.75397696711481
H         1.29774437200102   -2.22105542131030    0.01372725154141
27
 energy: -38.490911362005 gnorm: 0.004140633460 xtb: 6.4.1 (1a32961)
C        -0.54190803341660   -1.22439382083857   -0.48345574475625
C        -1.19255333127767   -0.00400453034784   -0.49618725238113
C        -0.51776125091872    1.13598200166814   -0.05389363786569
C        -1.32181178124409    2.40584558076068   -0.03928306259401
O        -2.55142416299580    2.29370915530416   -0.05948522216398
N        -0.74552245002100    3.61593734657542   -0.02423335503468
C         0.67220826992725    3.91366119629983    0.03947237514993
C         1.27220273116459    4.18830241229958   -1.33978476661073
C        -1.62890629410596    4.77231544137140   -0.09173147893646
C        -2.01925180325298    5.28789328686427    1.29102516466745
N         0.73581417711797    1.08047811946173    0.38077341361544
C         1.35153119033978   -0.08822808584997    0.39357211057832
C         0.76532864849650   -1.27411364037555   -0.02341830413807
H        -1.04814149676854   -2.11729744580256   -0.81846442506447
H        -2.21385986601989    0.08748208261166   -0.83006741841596
H         1.18700189470483    3.07278736694764    0.50461897631508
H         0.78757022096029    4.79938469538968    0.66970713270567
H         1.24692147780021    3.29040409381994   -1.95123224846585
H         2.30525505381850    4.50460207776185   -1.22505836967458
H         0.72651353057543    4.97421616462517   -1.85702164767120
H        -2.53012923838461    4.46798444900030   -0.62855985410791
H        -1.12122961222357    5.55626580478858   -0.65673278092507
H        -2.50880715765941    4.49807664038987    1.85505167387030
H        -2.71079552553781    6.11880084814800    1.18316837027043
H        -1.14659691603641    5.62696500000884    1.84401113686354
H         2.36894640031036   -0.06726379125265    0.76162439180914
H         1.31137532464735   -2.20332244962961    0.01314482296079
27
 energy: -38.491081860260 gnorm: 0.002738617941 xtb: 6.4.1 (1a32961)
C        -0.53116371421555   -1.21740078381243   -0.48664987828080
C        -1.19187641729483   -0.00221414965900   -0.49945109212406
C        -0.52728941890149    1.14089320421343   -0.04898370323807
C        -1.33360342920407    2.41018575280824   -0.04141176396477
O        -2.56358518988168    2.29484700844016   -0.07798350261483
N        -0.75240597585666    3.61937669133749   -0.02580823659199
C         0.66864276981349    3.90431019311721    0.03794641025846
C         1.26573722903088    4.16936794514690   -1.34436353771215
C        -1.62780571798595    4.78200159564549   -0.09227168487143
C        -2.01512518866943    5.28474828073128    1.29610631055441
N         0.72402196024313    1.09060868673009    0.39607147893983
C         1.35091962972360   -0.07324370894485    0.40601213007871
C         0.77497238749834   -1.26030361473644   -0.02201356082808
H        -1.02935238343310   -2.11259915383316   -0.82862824970984
H        -2.21191925653327    0.08972980882857   -0.83775673140177
H         1.17589994802103    3.05982926752028    0.49906372711279
H         0.79575762323536    4.78623578436202    0.66956030022105
H         1.22102330073738    3.27023470727849   -1.95441304216462
H         2.30518456609728    4.46743056695838   -1.23613238653380
H         0.72937543117464    4.96279751094056   -1.86005580506056
H        -2.53012240531824    4.48826326681015   -0.63332558908046
H        -1.11326470148822    5.56584233769102   -0.64968140452414
H        -2.51305369908375    4.49060883033328    1.84764714498384
H        -2.69708613431576    6.12559603335937    1.20138942950588
H        -1.13812096016485    5.60387824053667    1.85517059013077
H         2.36708776963788   -0.04363713860435    0.77760171997294
H         1.32912197713380   -2.18491716319887    0.00992092694276
27
 energy: -38.491173344141 gnorm: 0.003143748035 xtb: 6.4.1 (1a32961)
C        -0.52218435657289   -1.21310672867815   -0.49058225827488
C        -1.19082659103678   -0.00212619431208   -0.50223385805057
C        -0.53441236782897    1.14358383804547   -0.04590494234037
C        -1.34040169628179    2.41403288684145   -0.04807468880945
O        -2.56986723116829    2.29974932802114   -0.09078411043870
N        -0.75646386907110    3.62245828874145   -0.02842732905218
C         0.66626002861255    3.90045048083697    0.03448108374457
C         1.26092294093754    4.15455508503354   -1.35071134092695
C        -1.62671334576704    4.78911934297796   -0.08988410423981
C        -2.01310198339471    5.28084763191793    1.30269943127801
N         0.71398819953400    1.09691081111357    0.40901636326485
C         1.34848027255707   -0.06297912577149    0.41775680628509
C         0.78219911287781   -1.25059823712364   -0.02083591713943
H        -1.01318322135166   -2.11031647375469   -0.83832642265548
H        -2.20929319616278    0.08794907690678   -0.84622869409569
H         1.16842558078675    3.05505571750029    0.49674952253395
H         0.80051118812703    4.78278331502172    0.66355839908663
H         1.19857443062608    3.25401056400682   -1.95802270498478
H         2.30592292348754    4.43572653212399   -1.24912679178169
H         0.73427695645393    4.95457027418440   -1.86629512559432
H        -2.52923717724772    4.50514446546571   -0.63621951669748
H        -1.10681938711986    5.57459288757370   -0.63971312297731
H        -2.52080342475679    4.48523060771763    1.84357269568505
H        -2.68512883457115    6.13106717557039    1.21837139015302
H        -1.13318734566767    5.58244629268043    1.86750224619357
H         2.36146129678132   -0.02704222163533    0.79726228900260
H         1.34257109721757   -2.17164562100600    0.00796070083188
27
 energy: -38.491273279311 gnorm: 0.003087512837 xtb: 6.4.1 (1a32961)
C        -0.51255572305932   -1.20806748435024   -0.49637734272040
C        -1.18783439582488   -0.00066027887959   -0.50887122980243
C        -0.53966712453598    1.14714895606362   -0.04618079424127
C        -1.34534486307126    2.41824430476557   -0.05318800512116
O        -2.57413308467375    2.30662236022218   -0.10532569330812
N        -0.75941145787378    3.62602453543094   -0.02957024706504
C         0.66445219372697    3.89957439032097    0.02843790815703
C         1.25585724050037    4.13737057561321   -1.36087121476257
C        -1.62537793311964    4.79584921429055   -0.08432453495239
C        -2.01222460286310    5.27470253946873    1.31248787029440
N         0.70370062329663    1.10302072241972    0.42303646540972
C         1.34373340731292   -0.05334715088312    0.43407367286484
C         0.78859955398838   -1.24088964625664   -0.01780835561339
H        -0.99552897040075   -2.10709378025095   -0.85092650110330
H        -2.20479563455224    0.08509443439520   -0.85872171325838
H         1.16322926328770    3.05637544712258    0.49733018522754
H         0.80396797619226    4.78679315252314    0.64938339165774
H         1.17207908714970    3.23509285288130   -1.96353454563225
H         2.30706621843753    4.39815834630863   -1.26805182387512
H         0.74157373740757    4.94501824281179   -1.87705844003116
H        -2.52748542383104    4.52245225570635   -0.63722032533781
H        -1.09997013146116    5.58440255012172   -0.62488635958785
H        -2.53375272552397    4.47931787102500    1.84057855864762
H        -2.67131014089095    6.13600793166502    1.23799830812953
H        -1.13016007128977    5.55544446666033    1.88495598286429
H         2.35211545560221   -0.01190353193814    0.82475062927646
H         1.35514752606930   -2.15828327725791    0.00744415388361
27
 energy: -38.491392707147 gnorm: 0.002800712482 xtb: 6.4.1 (1a32961)
C        -0.50050669572745   -1.20048753471353   -0.50653489278850
C        -1.18194371185889    0.00364248359745   -0.52057472744122
C        -0.54357854068812    1.15249211767259   -0.04779056062610
C        -1.34859783729397    2.42390652872407   -0.06066698076897
O        -2.57654637914663    2.31627289777293   -0.12016970960914
N        -0.76086400908908    3.63099860924433   -0.02957224658134
C         0.66395225388752    3.90177745158961    0.01850356409210
C         1.24924324650982    4.11391229438916   -1.37754772618554
C        -1.62364037387252    4.80312914590132   -0.07382427839299
C        -2.01324402192908    5.26532605901107    1.32768669189454
N         0.69215801923502    1.11035273208989    0.44143829881564
C         1.33666298877914   -0.04285587331149    0.45681761255730
C         0.79498150025847   -1.22954591696898   -0.01263080880694
H        -0.97372261085021   -2.10074740581227   -0.87106729523112
H        -2.19580725972204    0.08303941138485   -0.88148666325033
H         1.16199840708011    3.06541231564617    0.50135599312804
H         0.80790938994237    4.80015525481429    0.62288433747018
H         1.13711873187971    3.20919042357201   -1.97219333355659
H         2.30777095637762    4.34829267913406   -1.29697486792014
H         0.75109770397725    4.93064501781929   -1.89533288372209
H        -2.52442527530010    4.54137556013150   -0.63485450269011
H        -1.09288258661356    5.59686607419636   -0.60222824702452
H        -2.55430557795025    4.47171987265719    1.83859461853766
H        -2.65464040198353    6.14072754181481    1.26356142869866
H        -1.13005359271679    5.51865864615027    1.91133104048763
H         2.33726725053979    0.00178105221428    0.86680716889808
H         1.36656842627531   -2.14356743872130    0.01202897001604
27
 energy: -38.491490877527 gnorm: 0.002564383192 xtb: 6.4.1 (1a32961)
C        -0.48888860543274   -1.19077247462573   -0.51924779089090
C        -1.17318045502094    0.01186965376005   -0.53710940769930
C        -0.54387071110720    1.15965929442876   -0.05070341078145
C        -1.34932765526692    2.42995651972828   -0.06530044850331
O        -2.57684059743710    2.32462259185326   -0.13078108747410
N        -0.76065363748385    3.63621600143472   -0.02679064210822
C         0.66496139958278    3.90550466477411    0.00744366198095
C         1.24207140475191    4.08885836745914   -1.39645530156146
C        -1.62239196837927    4.80909382584107   -0.06130932487974
C        -2.01577777087869    5.25551037717359    1.34426293356303
N         0.68308463749417    1.11775795211416    0.45991537982488
C         1.32887580250045   -0.03411155469425    0.48189789862051
C         0.79879996035700   -1.21917276921785   -0.00462922689345
H        -0.95344978814231   -2.09057088336032   -0.89571839200177
H        -2.18262443117376    0.08656757824258   -0.91170504219571
H         1.16552030940088    3.07908709778121    0.50701459144391
H         0.81244328355767    4.81768991409373    0.59102038072533
H         1.10392083407241    3.18114354828620   -1.98046469173231
H         2.30620322694481    4.29946938143876   -1.32859206705087
H         0.75796978446836    4.91164517020644   -1.91755937462943
H        -2.52157908232192    4.55543861350317   -0.62844268376694
H        -1.08871196977552    5.60820592313453   -0.57882155406822
H        -2.57558040814366    4.46432131706652    1.83811821946857
H        -2.64021412033335    6.14342113051154    1.28881410480740
H        -1.13299011826520    5.48263374659717    1.93900449647204
H         2.32149287232435    0.00984139660616    0.91110337328508
H         1.37270780370752   -2.13141638413711    0.02259540604572
27
 energy: -38.491563087412 gnorm: 0.002340416014 xtb: 6.4.1 (1a32961)
C        -0.47995622640542   -1.18174811235139   -0.53152601055848
C        -1.16350442771682    0.02132658502605   -0.55421877872048
C        -0.54104194375510    1.16629576695545   -0.05318025533830
C        -1.34768811592996    2.43491115313308   -0.06705096461312
O        -2.57510005377861    2.32913171178091   -0.13243090803082
N        -0.75928277322091    3.64072491920653   -0.02278611468836
C         0.66680057624966    3.90931229722717   -0.00187738903163
C         1.23577527505451    4.06906971862912   -1.41212841387077
C        -1.62233015440253    4.81279710971730   -0.05042518425440
C        -2.01853717060800    5.24869016975961    1.35769037176294
N         0.67824711752111    1.12302389034584    0.47462459475758
C         1.32267672980565   -0.02941098343085    0.50204215769559
C         0.79958834535380   -1.21256482563940    0.00348543000426
H        -0.93890577913363   -2.07954745858114   -0.91906245071481
H        -2.16759774160219    0.09554113266879   -0.94320321750592
H         1.17142834749049    3.09217064504710    0.51074248759509
H         0.81711391580086    4.83225296040512    0.56405393570977
H         1.08090725507545    3.15799000983209   -1.98517803447608
H         2.30247575868605    4.26522778755527   -1.35410067182391
H         0.75913982995208    4.89274742022868   -1.93791201767136
H        -2.52048429497724    4.56170645977269   -0.61978583056690
H        -1.08918321119335    5.61592801928746   -0.56166852448464
H        -2.59034300811802    4.45960513069263    1.83961592857988
H        -2.63182676509622    6.14400884757153    1.30790816387190
H        -1.13699902970172    5.45825045812576    1.95939235720947
H         2.30846519593794    0.01035933339852    0.94712525693458
H         1.37213234871199   -2.12533014636405    0.03741408222917
27
 energy: -38.491631315353 gnorm: 0.002239450882 xtb: 6.4.1 (1a32961)
C        -0.47119951155508   -1.17212034198263   -0.54498536170711
C        -1.15150437386430    0.03267519970609   -0.57423372706374
C        -0.53580590753655    1.17340921333103   -0.05549778501373
C        -1.34491207991005    2.43978610390423   -0.06572878494329
O        -2.57249868452420    2.33092963274716   -0.12747571332422
N        -0.75779833103026    3.64560250332635   -0.01785272267681
C         0.66868379684000    3.91303518186268   -0.01080195716936
C         1.22877792570066    4.05074936447410   -1.42692052306944
C        -1.62330106286874    4.81619414988361   -0.04033217093757
C        -2.02117707457661    5.24348965142190    1.37013697497770
N         0.67551923158781    1.12735127590460    0.48955658043560
C         1.31690650204928   -0.02690587187668    0.52229511072161
C         0.79866161821496   -1.20769432914611    0.01292837527843
H        -0.92587348815427   -2.06687693895532   -0.94399324650994
H        -2.14883934908229    0.11031397271273   -0.97950047123277
H         1.17731157831015    3.10391511915197    0.51149733236471
H         0.82300007670251    4.84419184287420    0.53956216066248
H         1.06145345063370    3.13460081301557   -1.98731196913304
H         2.29711904386729    4.23742535087278   -1.37849040216370
H         0.75520850072167    4.87193822492833   -1.95900656284723
H        -2.52095035084751    4.56479719742168   -0.61003035481554
H        -1.09225795428405    5.62283935361209   -0.54760457748006
H        -2.60224653382666    4.45533498416927    1.84163185490030
H        -2.62589481981486    6.14456843719664    1.32539500450103
H        -1.14047656870462    5.43851070616912    1.97713384735353
H         2.29661175647864    0.00695768567668    0.98078175314016
H         1.36745260947319   -2.12254848240224    0.05640733575230
27
 energy: -38.491700543137 gnorm: 0.002296932829 xtb: 6.4.1 (1a32961)
C        -0.46204105159308   -1.16210403148657   -0.55993966004910
C        -1.13733212251638    0.04525896126327   -0.59657252207891
C        -0.52910828200913    1.18050108831780   -0.05698926784499
C        -1.34145820430123    2.44460896180567   -0.06146614192645
O        -2.56930842988591    2.33091508242935   -0.11538047478325
N        -0.75638848287646    3.65091660511693   -0.01302942261051
C         0.67045071627164    3.91626539410997   -0.01957445092273
C         1.22067400531687    4.03332401757290   -1.44125089372563
C        -1.62488945102348    4.81972394795528   -0.03103254655290
C        -2.02330642925298    5.23968253821576    1.38174284588576
N         0.67366356497911    1.13033789462196    0.50614150003788
C         1.31125569507834   -0.02636528158119    0.54287458218720
C         0.79653304188881   -1.20420502359470    0.02276267848891
H        -0.91268495205161   -2.05308267333533   -0.97180930536504
H        -2.12611662472605    0.12996009229101   -1.02100570962695
H         1.18201678931333    3.11347031652553    0.50950347014193
H         0.83000765442055    4.85356850144267    0.51726268039803
H         1.04584221196841    3.11022894381558   -1.98726585338893
H         2.28963506363947    4.21641286499315   -1.40280910386057
H         0.74558469415432    4.84841438257909   -1.98143732081709
H        -2.52261492741096    4.56662830398732   -0.59995427833617
H        -1.09696964692941    5.62955206247947   -0.53612263631119
H        -2.61035819646299    4.45164029137907    1.84520538176216
H        -2.62220120632066    6.14471918565615    1.34227767569203
H        -1.14298643292545    5.42374306163342    1.99190390565547
H         2.28451828749781    0.00066571874433    1.01567847460293
H         1.35955271575688   -2.12231120693810    0.07784639334847
27
 energy: -38.491761357031 gnorm: 0.002264724615 xtb: 6.4.1 (1a32961)
C        -0.45272029592294   -1.15263440113252   -0.57527092459519
C        -1.12295112445691    0.05722901931808   -0.61800359134156
C        -0.52282052825935    1.18651141332405   -0.05681990044044
C        -1.33834918849379    2.44878060741297   -0.05459724100704
O        -2.56638746446009    2.33013280586048   -0.09935566587173
N        -0.75543680174083    3.65579323359331   -0.00925248549044
C         0.67176319461495    3.91813416905944   -0.02732769999903
C         1.21191840358079    4.01810365763203   -1.45392564467225
C        -1.62621870613630    4.82316066656769   -0.02354863633182
C        -2.02421241113069    5.23742262513364    1.39115793058256
N         0.67129181214581    1.13141945308423    0.52436902337675
C         1.30548720872196   -0.02745667102343    0.56356234997034
C         0.79415706254585   -1.20179047276360    0.03147693100411
H        -0.89919891293533   -2.03987641303958   -0.99982660704288
H        -2.10262717593552    0.15032043607469   -1.06124519825889
H         1.18453938803296    3.11926761043580    0.50587186053342
H         0.83725212546448    4.85965097921792    0.49912394801447
H         1.03332454125415    3.08735014813189   -1.98632308407342
H         2.28107394515726    4.20288117919648   -1.42561707637732
H         0.73124275915574    4.82529515111568   -2.00153653900049
H        -2.52431038276979    4.56889101827544   -0.59180544894970
H        -1.10080340284018    5.63539992701600   -0.52742778499645
H        -2.61442204851043    4.44851302185734    1.84926589906421
H        -2.62001055630194    6.14478744943848    1.35648270818928
H        -1.14351490364106    5.41438582798981    2.00280756666539
H         2.27255753601662   -0.00615297833826    1.04938145806511
H         1.35134592684431   -2.12304946343834    0.09594385298337
27
 energy: -38.491808845315 gnorm: 0.002223158454 xtb: 6.4.1 (1a32961)
C        -0.44585417708189   -1.14635238128783   -0.58640607665834
C        -1.11308665832699    0.06493320596490   -0.63155098237849
C        -0.51964510003718    1.18945034877429   -0.05446839782431
C        -1.33720623158903    2.45072099302695   -0.04727324088285
O        -2.56524446731450    2.32909384246669   -0.08386061135459
N        -0.75538022150198    3.65820769372884   -0.00767103083893
C         0.67216301045253    3.91750542255660   -0.03231235331662
C         1.20526783899705    4.00936997198668   -1.46153986988199
C        -1.62673374259587    4.82511682205649   -0.01975342259216
C        -2.02323628178584    5.23761009720747    1.39574720020215
N         0.66796826313814    1.13022223832451    0.53948997021722
C         1.30076368342303   -0.02963044630164    0.57810723089417
C         0.79258139676844   -1.20075918204720    0.03558000213011
H        -0.88827842778699   -2.03076391413540   -1.02139935126683
H        -2.08563187554258    0.16440462550405   -1.08810000565566
H         1.18472432583129    3.11965121463301    0.50189006808680
H         0.84219193399257    4.86043458756788    0.48952092566673
H         1.03051838548452    3.07308481634969   -1.98511986902792
H         2.27320419123481    4.20209547408954   -1.44007767078132
H         0.71596387309682    4.80837223375391   -2.01390294544433
H        -2.52550029035441    4.57068360259139   -0.58724889396251
H        -1.10250602416661    5.63807079595775   -0.52391663872820
H        -2.61181258899118    4.44759023220637    1.85385740000232
H        -2.62014581476352    6.14429360835269    1.36351900336630
H        -1.14179356488778    5.41471654407275    2.00601422350701
H         2.26270742923345   -0.01169899536477    1.07436729334417
H         1.34597113507340   -2.12395345203590    0.10406804317843
27
 energy: -38.491865803304 gnorm: 0.002021910458 xtb: 6.4.1 (1a32961)
C        -0.43785311016777   -1.14019829966778   -0.59946182534718
C        -1.10417223069354    0.07156636302745   -0.64414901011170
C        -0.51902422216405    1.19095611456167   -0.04957968295392
C        -1.33806349651992    2.45160533619891   -0.03820315372853
O        -2.56596330284530    2.32844728308790   -0.06611486429730
N        -0.75617020017477    3.65931789222449   -0.00710324886919
C         0.67195077286617    3.91505297629663   -0.03738448620377
C         1.19821246117271    4.00240461437462   -1.46895774259836
C        -1.62651063384825    4.82669520223846   -0.01707686360319
C        -2.02003873724748    5.23913362800684    1.39903008242639
N         0.66128152282567    1.12727016542349    0.55897569940364
C         1.29422280176486   -0.03267089444868    0.59577753670675
C         0.79182113267909   -1.19971291222014    0.03845055980427
H        -0.87465804521276   -2.02173117029024   -1.04601304216716
H        -2.06970274530814    0.17599177601748   -1.11301540995588
H         1.18363738091226    3.11672979971097    0.49653480396581
H         0.84694105208801    4.85831581224279    0.48227265923486
H         1.03195251471647    3.06005368319295   -1.98486764001348
H         2.26432933301080    4.20848004149297   -1.45457267225552
H         0.69630902480740    4.79159746783219   -2.02479469394701
H        -2.52641848762813    4.57352970933937   -0.58369869661851
H        -1.10225244083367    5.63935008995414   -0.52203496946482
H        -2.60436075788308    4.44706769965716    1.85989686399083
H        -2.62055131341180    6.14375021250816    1.36819171188859
H        -1.13692281365162    5.42014971058819    2.00641431908027
H         2.25062397507140   -0.01683878471470    1.10219653775723
H         1.34335056567510   -2.12384351663558    0.10684722787729
27
 energy: -38.491937025146 gnorm: 0.002194061520 xtb: 6.4.1 (1a32961)
C        -0.42799419988938   -1.13342341735885   -0.61533120511312
C        -1.09575343027650    0.07777996522697   -0.65662892317666
C        -0.52126269834996    1.19104238637356   -0.04153698480955
C        -1.34117506389435    2.45118327916566   -0.02605520630052
O        -2.56888287525292    2.32814979093765   -0.04386541909786
N        -0.75774406610982    3.65844284365418   -0.00700845758993
C         0.67115025451417    3.90985107560301   -0.04335301593039
C         1.18999085094523    3.99669603930514   -1.47730651403886
C        -1.62545992244204    4.82734314364401   -0.01494784059090
C        -2.01364650185904    5.24257776034131    1.40148510096544
N         0.64991206764933    1.12239987785226    0.58421214582876
C         1.28474264134597   -0.03662420810344    0.61710839279894
C         0.79192919867209   -1.19820026591064    0.03985266685801
H        -0.85605205951538   -2.01117886211695   -1.07829897594569
H        -2.05345722000182    0.18607250539681   -1.14027025040490
H         1.18210017354926    3.10987037464034    0.48879614235495
H         0.85146837132204    4.85229164817518    0.47643030752834
H         1.03999524285829    3.04787401372444   -1.98660685077612
H         2.25235476894644    4.22432168517214   -1.46969283288639
H         0.67007674728007    4.77290268934271   -2.03575134585666
H        -2.52760719011689    4.57621970736612   -0.57906514551661
H        -1.10078632905632    5.63833921400524   -0.52232183405305
H        -2.58837387896312    4.44794932801571    1.87012087019741
H        -2.62200036136149    6.14199762511341    1.37063128987916
H        -1.12822966174218    5.43425115554489    2.00241733509498