      -----------------------------------------------------------      
     |                   =====================                   |     
     |                           x T B                           |     
     |                   =====================                   |     
     |                         S. Grimme                         |     
     |          Mulliken Center for Theoretical Chemistry        |     
     |                    University of Bonn                     |     
      -----------------------------------------------------------      

   * xtb version 6.4.0 (f63f532) compiled by 'knkr256@seskscpg008.prim.scp' on 2021-04-09

   xtb is free software: you can redistribute it and/or modify it under
   the terms of the GNU Lesser General Public License as published by
   the Free Software Foundation, either version 3 of the License, or
   (at your option) any later version.
   
   xtb is distributed in the hope that it will be useful,
   but WITHOUT ANY WARRANTY; without even the implied warranty of
   MERCHANTABILITY or FITNESS FOR A PARTICULAR PURPOSE.  See the
   GNU Lesser General Public License for more details.
   
   Cite this work as:
   * C. Bannwarth, E. Caldeweyher, S. Ehlert, A. Hansen, P. Pracht,
     J. Seibert, S. Spicher, S. Grimme, WIREs Comput. Mol. Sci., 2020, 11,
     e01493. DOI: 10.1002/wcms.1493
   
   for GFN2-xTB:
   * C. Bannwarth, S. Ehlert and S. Grimme., J. Chem. Theory Comput., 2019,
     15, 1652-1671. DOI: 10.1021/acs.jctc.8b01176
   for GFN1-xTB:
   * S. Grimme, C. Bannwarth, P. Shushkov, J. Chem. Theory Comput., 2017,
     13, 1989-2009. DOI: 10.1021/acs.jctc.7b00118
   for GFN0-xTB:
   * P. Pracht, E. Caldeweyher, S. Ehlert, S. Grimme, ChemRxiv, 2019, preprint.
     DOI: 10.26434/chemrxiv.8326202.v1
   for GFN-FF:
   * S. Spicher and S. Grimme, Angew. Chem. Int. Ed., 2020, 59, 15665-15673.
     DOI: 10.1002/anie.202004239
   
   for DFT-D4:
   * E. Caldeweyher, C. Bannwarth and S. Grimme, J. Chem. Phys., 2017,
     147, 034112. DOI: 10.1063/1.4993215
   * E. Caldeweyher, S. Ehlert, A. Hansen, H. Neugebauer, S. Spicher,
     C. Bannwarth and S. Grimme, J. Chem. Phys., 2019, 150, 154122.
     DOI: 10.1063/1.5090222
   * E. Caldeweyher, J.-M. Mewes, S. Ehlert and S. Grimme, Phys. Chem. Chem. Phys.
     2020, 22, 8499-8512. DOI: 10.1039/D0CP00502A
   
   for sTDA-xTB:
   * S. Grimme and C. Bannwarth, J. Chem. Phys., 2016, 145, 054103.
     DOI: 10.1063/1.4959605
   
   in the mass-spec context:
   * V. Asgeirsson, C. Bauer and S. Grimme, Chem. Sci., 2017, 8, 4879.
     DOI: 10.1039/c7sc00601b
   * J. Koopman and S. Grimme, ACS Omega 2019, 4, 12, 15120-15133.
     DOI: 10.1021/acsomega.9b02011
   
   for metadynamics refer to:
   * S. Grimme, J. Chem. Theory Comput., 2019, 155, 2847-2862
     DOI: 10.1021/acs.jctc.9b00143
   
   for SPH calculations refer to:
   * S. Spicher and S. Grimme, J. Chem. Theory Comput., 2021, 17, 1701-1714
     DOI: 10.1021/acs.jctc.0c01306
   
   with help from (in alphabetical order)
   P. Atkinson, C. Bannwarth, F. Bohle, G. Brandenburg, E. Caldeweyher
   M. Checinski, S. Dohm, S. Ehlert, S. Ehrlich, I. Gerasimov, J. Koopman
   C. Lavinge, S. Lehtola, F. März, M. Müller, F. Musil, H. Neugebauer
   J. Pisarek, P. Pracht, J. Seibert, P. Shushkov, S. Spicher, M. Stahn
   T. Strunk, J. Stückrath, T. Rose, and J. Unsleber
   
 * started run on 2021/10/08 at 07:18:42.458     

           -------------------------------------------------
          |                Calculation Setup                |
           -------------------------------------------------

          program call               : xtb xtbopt.xyz --sp --alpb thf -P 6
          hostname                   : seskscpg010.prim.scp
          coordinate file            : xtbopt.xyz
          omp threads                :                     6
          number of atoms            :                   106
          number of electrons        :                   280
          charge                     :                     0
          spin                       :                   0.0
          first test random number   :      0.14538502663268

   ID    Z sym.   atoms
    1    7 N      1, 11, 91, 98
    2    6 C      2-6, 10, 12-15, 23, 24, 28, 32, 34, 38, 44, 45, 49, 53, 55,
                  59, 65, 66, 70, 74, 76, 80, 86-89, 94, 95, 99-101, 103
    3    1 H      7-9, 16-18, 20, 25-27, 29-31, 35-37, 39-41, 46-48, 50-52,
                  56-58, 60-62, 67-69, 71-73, 77-79, 81-85, 90, 92, 93, 96,
                  97, 102, 104-106
    4   77 Ir     19
    5    5 B      21, 42, 63
    6    8 O      22, 33, 43, 54, 64, 75

molecular fragmentation (1/2 indicates fragments):
111111111111111111111111111111111111111111111111111111111111111111111111
1111111111111222222222222222222222
# atoms in fragment 1/2:    85    21
 fragment masses (1/2) :      730.32      157.19
CMA distance (Bohr)    :  11.439
constraining FC (au)   :  0.0500

           -------------------------------------------------
          |                 G F N 2 - x T B                 |
           -------------------------------------------------

        Reference                      10.1021/acs.jctc.8b01176
      * Hamiltonian:
        H0-scaling (s, p, d)           1.850000    2.230000    2.230000
        zeta-weighting                 0.500000
      * Dispersion:
        s8                             2.700000
        a1                             0.520000
        a2                             5.000000
        s9                             5.000000
      * Repulsion:
        kExp                           1.500000    1.000000
        rExp                           1.000000
      * Coulomb:
        alpha                          2.000000
        third order                    shell-resolved
        anisotropic                    true
        a3                             3.000000
        a5                             4.000000
        cn-shift                       1.200000
        cn-exp                         4.000000
        max-rad                        5.000000

      * Solvation model:               ALPB
        Solvent                        thf
        Parameter file                 internal GFN2-xTB/ALPB
        Dielectric constant                7.6000E+00
        Reference state                gsolv [1 M gas/solution]
        Free energy shift                  5.3248E-03 Eh       3.3414E+00 kcal/mol
        Temperature                        2.9815E+02 K
        Density                            8.8300E-01 kg/L
        Solvent mass                       7.2106E+01 g/mol
        Interaction kernel             P16
        Born radius scaling (c1)           1.7311E+00
        Born radii integrator          GBOBC
        Born offset                        0.0000E+00 a0       0.0000E+00 AA
        H-bond correction              true
        Ion screening                  false
        Surface tension                    1.0000E-05 Eh       1.5569E+01 dyn/cm
        Grid points                               230 per atom
q/qsh data taken from xtbrestart
CAMM data taken from xtbrestart

          ...................................................
          :                      SETUP                      :
          :.................................................:
          :  # basis functions                 268          :
          :  # atomic orbitals                 267          :
          :  # shells                          159          :
          :  # electrons                       280          :
          :  max. iterations                   250          :
          :  Hamiltonian                  GFN2-xTB          :
          :  restarted?                       true          :
          :  GBSA solvation                   true          :
          :  PC potential                    false          :
          :  electronic temp.          300.0000000     K    :
          :  accuracy                    1.0000000          :
          :  -> integral cutoff          0.2500000E+02      :
          :  -> integral neglect         0.1000000E-07      :
          :  -> SCF convergence          0.1000000E-05 Eh   :
          :  -> wf. convergence          0.1000000E-03 e    :
          :  Broyden damping             0.4000000          :
          ...................................................

 iter      E             dE          RMSdq      gap      omega  full diag
   1   -154.9145417 -0.154915E+03  0.288E-05    0.88       0.0  T
   2   -154.9145417  0.483880E-09  0.742E-05    0.88     130.8  T
   3   -154.9145417 -0.552575E-09  0.784E-06    0.88    1238.2  T

   *** convergence criteria satisfied after 3 iterations ***

         #    Occupation            Energy/Eh            Energy/eV
      -------------------------------------------------------------
         1        2.0000           -0.6719601             -18.2850
       ...           ...                  ...                  ...
       134        2.0000           -0.3551949              -9.6653
       135        2.0000           -0.3393382              -9.2339
       136        2.0000           -0.3238862              -8.8134
       137        2.0000           -0.3153436              -8.5809
       138        2.0000           -0.3141909              -8.5496
       139        2.0000           -0.3058333              -8.3221
       140        2.0000           -0.3029171              -8.2428 (HOMO)
       141                         -0.2704633              -7.3597 (LUMO)
       142                         -0.2464085              -6.7051
       143                         -0.2431138              -6.6155
       144                         -0.2403785              -6.5410
       145                         -0.2335491              -6.3552
       ...                                ...                  ...
       267                          3.7138269             101.0584
      -------------------------------------------------------------
                  HL-Gap            0.0324538 Eh            0.8831 eV
             Fermi-level           -0.2866687 Eh           -7.8007 eV

 SCC (total)                   0 d,  0 h,  0 min,  0.112 sec
 SCC setup                      ...        0 min,  0.002 sec (  2.053%)
 Dispersion                     ...        0 min,  0.003 sec (  2.308%)
 classical contributions        ...        0 min,  0.000 sec (  0.152%)
 integral evaluation            ...        0 min,  0.031 sec ( 27.570%)
 iterations                     ...        0 min,  0.034 sec ( 30.446%)
 molecular gradient             ...        0 min,  0.041 sec ( 36.834%)
 printout                       ...        0 min,  0.001 sec (  0.589%)

         :::::::::::::::::::::::::::::::::::::::::::::::::::::
         ::                     SUMMARY                     ::
         :::::::::::::::::::::::::::::::::::::::::::::::::::::
         :: total energy            -152.891362022771 Eh    ::
         :: total w/o Gsasa/hb      -152.848361878230 Eh    ::
         :: gradient norm              0.036534084864 Eh/a0 ::
         :: HOMO-LUMO gap              0.883113381221 eV    ::
         ::.................................................::
         :: SCC energy              -154.914541666846 Eh    ::
         :: -> isotropic ES            0.247587731368 Eh    ::
         :: -> anisotropic ES          0.017478583669 Eh    ::
         :: -> anisotropic XC          0.058993933686 Eh    ::
         :: -> dispersion             -0.146646036027 Eh    ::
         :: -> Gsolv                  -0.053878468024 Eh    ::
         ::    -> Gelec               -0.010878323483 Eh    ::
         ::    -> Gsasa               -0.045631769955 Eh    ::
         ::    -> Ghb                 -0.002693190030 Eh    ::
         ::    -> Gshift               0.005324815444 Eh    ::
         :: repulsion energy           2.014408734860 Eh    ::
         :: add. restraining           0.000000000000 Eh    ::
         :: total charge               0.000000000001 e     ::
         :::::::::::::::::::::::::::::::::::::::::::::::::::::

           -------------------------------------------------
          |                Property Printout                |
           -------------------------------------------------

    * Orbital Energies and Occupations

         #    Occupation            Energy/Eh            Energy/eV
      -------------------------------------------------------------
         1        2.0000           -0.6719601             -18.2850
       ...           ...                  ...                  ...
       128        2.0000           -0.3846263             -10.4662
       129        2.0000           -0.3840692             -10.4511
       130        2.0000           -0.3804344             -10.3521
       131        2.0000           -0.3786409             -10.3033
       132        2.0000           -0.3723124             -10.1311
       133        2.0000           -0.3651711              -9.9368
       134        2.0000           -0.3551949              -9.6653
       135        2.0000           -0.3393382              -9.2339
       136        2.0000           -0.3238862              -8.8134
       137        2.0000           -0.3153436              -8.5809
       138        2.0000           -0.3141909              -8.5496
       139        2.0000           -0.3058333              -8.3221
       140        2.0000           -0.3029171              -8.2428 (HOMO)
       141                         -0.2704633              -7.3597 (LUMO)
       142                         -0.2464085              -6.7051
       143                         -0.2431138              -6.6155
       144                         -0.2403785              -6.5410
       145                         -0.2335491              -6.3552
       146                         -0.1998524              -5.4383
       147                         -0.1887734              -5.1368
       148                         -0.1667514              -4.5375
       149                         -0.1452972              -3.9537
       150                         -0.1258235              -3.4238
       151                         -0.1222383              -3.3263
       ...                                ...                  ...
       267                          3.7138269             101.0584
      -------------------------------------------------------------
                  HL-Gap            0.0324538 Eh            0.8831 eV
             Fermi-level           -0.2866687 Eh           -7.8007 eV

     #   Z          covCN         q      C6AA      α(0)
     1   7 N        2.570    -0.120    23.632     7.220
     2   6 C        2.957     0.075    26.330     8.416
     3   6 C        2.918    -0.043    29.058     8.840
     4   6 C        2.923    -0.025    28.618     8.773
     5   6 C        2.915    -0.045    29.113     8.848
     6   6 C        2.892     0.048    26.931     8.508
     7   1 H        0.926     0.049     2.330     2.387
     8   1 H        0.926     0.051     2.308     2.376
     9   1 H        0.926     0.041     2.430     2.438
    10   6 C        2.955     0.071    26.415     8.430
    11   7 N        2.582    -0.118    23.588     7.213
    12   6 C        2.889     0.043    27.043     8.526
    13   6 C        2.915    -0.047    29.167     8.856
    14   6 C        2.922    -0.026    28.657     8.779
    15   6 C        2.918    -0.046    29.147     8.853
    16   1 H        0.926     0.041     2.432     2.439
    17   1 H        0.926     0.047     2.353     2.399
    18   1 H        0.926     0.075     2.036     2.231
    19  77 Ir       5.987    -0.173   390.261    36.532
    20   1 H        0.977     0.095     1.825     2.111
    21   5 B        2.625     0.402    16.057     6.775
    22   8 O        1.638    -0.415    21.160     6.209
    23   6 C        3.835     0.131    18.432     6.108
    24   6 C        3.755    -0.119    22.843     6.815
    25   1 H        0.925     0.052     2.299     2.371
    26   1 H        0.925     0.043     2.407     2.426
    27   1 H        0.925     0.049     2.331     2.388
    28   6 C        3.754    -0.107    22.594     6.778
    29   1 H        0.925     0.045     2.381     2.413
    30   1 H        0.925     0.039     2.459     2.452
    31   1 H        0.925     0.027     2.629     2.535
    32   6 C        3.839     0.131    18.429     6.107
    33   8 O        1.637    -0.406    20.973     6.182
    34   6 C        3.755    -0.117    22.801     6.809
    35   1 H        0.925     0.046     2.371     2.408
    36   1 H        0.925     0.045     2.388     2.417
    37   1 H        0.925     0.049     2.338     2.391
    38   6 C        3.754    -0.118    22.824     6.812
    39   1 H        0.925     0.047     2.363     2.404
    40   1 H        0.925     0.052     2.299     2.371
    41   1 H        0.925     0.043     2.405     2.425
    42   5 B        2.623     0.404    16.041     6.772
    43   8 O        1.637    -0.385    20.568     6.122
    44   6 C        3.836     0.129    18.469     6.114
    45   6 C        3.755    -0.125    22.953     6.831
    46   1 H        0.925     0.054     2.271     2.357
    47   1 H        0.925     0.056     2.249     2.345
    48   1 H        0.925     0.048     2.344     2.394
    49   6 C        3.755    -0.121    22.869     6.819
    50   1 H        0.925     0.047     2.355     2.400
    51   1 H        0.925     0.044     2.397     2.421
    52   1 H        0.925     0.053     2.285     2.364
    53   6 C        3.833     0.128    18.481     6.116
    54   8 O        1.638    -0.382    20.522     6.115
    55   6 C        3.755    -0.123    22.923     6.827
    56   1 H        0.925     0.054     2.274     2.358
    57   1 H        0.925     0.054     2.269     2.356
    58   1 H        0.925     0.047     2.357     2.401
    59   6 C        3.755    -0.115    22.758     6.802
    60   1 H        0.925     0.039     2.466     2.455
    61   1 H        0.925     0.048     2.351     2.398
    62   1 H        0.925     0.045     2.377     2.411
    63   5 B        2.622     0.399    16.106     6.788
    64   8 O        1.637    -0.378    20.446     6.104
    65   6 C        3.831     0.125    18.529     6.125
    66   6 C        3.755    -0.130    23.047     6.845
    67   1 H        0.925     0.058     2.221     2.330
    68   1 H        0.925     0.054     2.274     2.358
    69   1 H        0.925     0.049     2.338     2.391
    70   6 C        3.755    -0.129    23.024     6.842
    71   1 H        0.925     0.060     2.195     2.317
    72   1 H        0.925     0.049     2.329     2.386
    73   1 H        0.925     0.051     2.304     2.374
    74   6 C        3.827     0.127    18.501     6.120
    75   8 O        1.637    -0.385    20.577     6.123
    76   6 C        3.755    -0.122    22.899     6.823
    77   1 H        0.925     0.049     2.330     2.387
    78   1 H        0.925     0.051     2.304     2.374
    79   1 H        0.925     0.053     2.282     2.362
    80   6 C        3.755    -0.121    22.872     6.819
    81   1 H        0.925     0.039     2.460     2.453
    82   1 H        0.925     0.048     2.342     2.393
    83   1 H        0.925     0.053     2.283     2.363
    84   1 H        0.926     0.048     2.349     2.397
    85   1 H        0.926     0.045     2.380     2.413
    86   6 C        2.945    -0.052    29.303     8.878
    87   6 C        3.062    -0.067    29.609     8.923
    88   6 C        3.067    -0.034    28.778     8.796
    89   6 C        3.045    -0.035    28.838     8.808
    90   1 H        0.926     0.006     2.956     2.689
    91   7 N        2.845    -0.001    21.283     6.852
    92   1 H        0.926     0.031     2.577     2.511
    93   1 H        0.926     0.027     2.622     2.532
    94   6 C        3.749    -0.028    21.129     6.556
    95   6 C        2.957     0.093    25.923     8.351
    96   1 H        0.924     0.081     1.964     2.192
    97   1 H        0.924     0.088     1.901     2.156
    98   7 N        1.842    -0.249    27.340     7.749
    99   6 C        2.916    -0.045    29.115     8.848
   100   6 C        2.907     0.054    26.777     8.485
   101   6 C        2.929    -0.014    28.369     8.735
   102   1 H        0.926     0.048     2.350     2.397
   103   6 C        2.914    -0.047    29.155     8.854
   104   1 H        0.925     0.047     2.361     2.403
   105   1 H        0.926     0.046     2.374     2.409
   106   1 H        0.926     0.048     2.344     2.394

 Mol. C6AA /au·bohr⁶  :     121750.583763
 Mol. C8AA /au·bohr⁸  :    3218340.377106
 Mol. α(0) /au        :        542.354916


Wiberg/Mayer (AO) data.
largest (>0.10) Wiberg bond orders for each atom

 ---------------------------------------------------------------------------
     #   Z sym  total        # sym  WBO       # sym  WBO       # sym  WBO
 ---------------------------------------------------------------------------
     1   7 N    3.408 --     6 C    1.378     2 C    1.297    19 Ir   0.470
     2   6 C    3.978 --     3 C    1.345     1 N    1.297    10 C    1.100
     3   6 C    3.988 --     4 C    1.488     2 C    1.345     9 H    0.962
                             6 C    0.106
     4   6 C    3.982 --     3 C    1.488     5 C    1.372    84 H    0.969
     5   6 C    3.980 --     6 C    1.469     4 C    1.372     8 H    0.969
     6   6 C    3.978 --     5 C    1.469     1 N    1.378     7 H    0.957
                             3 C    0.106
     7   1 H    0.997 --     6 C    0.957
     8   1 H    0.997 --     5 C    0.969
     9   1 H    0.998 --     3 C    0.962
    10   6 C    3.979 --    15 C    1.347    11 N    1.296     2 C    1.100
    11   7 N    3.425 --    12 C    1.380    10 C    1.296    19 Ir   0.463
    12   6 C    3.974 --    13 C    1.464    11 N    1.380    18 H    0.948
                            15 C    0.106
    13   6 C    3.981 --    12 C    1.464    14 C    1.375    17 H    0.969
    14   6 C    3.982 --    15 C    1.485    13 C    1.375    85 H    0.969
    15   6 C    3.989 --    14 C    1.485    10 C    1.347    16 H    0.962
                            12 C    0.106
    16   1 H    0.998 --    15 C    0.962
    17   1 H    0.997 --    13 C    0.969
    18   1 H    0.994 --    12 C    0.948
    19  77 Ir   5.263 --    63 B    0.872    42 B    0.865    21 B    0.712
                            86 C    0.603    20 H    0.553     1 N    0.470
                            11 N    0.463
    20   1 H    0.987 --    19 Ir   0.553    86 C    0.329
    21   5 B    3.256 --    33 O    1.106    22 O    1.082    19 Ir   0.712
    22   8 O    2.180 --    21 B    1.082    23 C    0.945
    23   6 C    3.945 --    24 C    0.996    28 C    0.989    22 O    0.945
                            32 C    0.941
    24   6 C    3.994 --    23 C    0.996    26 H    0.984    27 H    0.983
                            25 H    0.983
    25   1 H    0.997 --    24 C    0.983
    26   1 H    0.997 --    24 C    0.984
    27   1 H    0.997 --    24 C    0.983
    28   6 C    3.997 --    23 C    0.989    31 H    0.985    29 H    0.984
                            30 H    0.984
    29   1 H    0.997 --    28 C    0.984
    30   1 H    0.998 --    28 C    0.984
    31   1 H    0.999 --    28 C    0.985
    32   6 C    3.942 --    38 C    0.996    34 C    0.991    33 O    0.942
                            23 C    0.941
    33   8 O    2.197 --    21 B    1.106    32 C    0.942
    34   6 C    3.995 --    32 C    0.991    36 H    0.984    35 H    0.983
                            37 H    0.982
    35   1 H    0.998 --    34 C    0.983
    36   1 H    0.997 --    34 C    0.984
    37   1 H    0.997 --    34 C    0.982
    38   6 C    3.995 --    32 C    0.996    41 H    0.984    39 H    0.983
                            40 H    0.983
    39   1 H    0.998 --    38 C    0.983
    40   1 H    0.997 --    38 C    0.983
    41   1 H    0.997 --    38 C    0.984
    42   5 B    3.330 --    43 O    1.110    54 O    1.102    19 Ir   0.865
    43   8 O    2.221 --    42 B    1.110    44 C    0.938
    44   6 C    3.938 --    45 C    0.996    49 C    0.990    53 C    0.939
                            43 O    0.938
    45   6 C    3.993 --    44 C    0.996    48 H    0.983    46 H    0.982
                            47 H    0.982
    46   1 H    0.997 --    45 C    0.982
    47   1 H    0.997 --    45 C    0.982
    48   1 H    0.997 --    45 C    0.983
    49   6 C    3.994 --    44 C    0.990    50 H    0.984    51 H    0.983
                            52 H    0.979
    50   1 H    0.997 --    49 C    0.984
    51   1 H    0.998 --    49 C    0.983
    52   1 H    0.997 --    49 C    0.979
    53   6 C    3.940 --    55 C    0.996    59 C    0.991    44 C    0.939
                            54 O    0.939
    54   8 O    2.222 --    42 B    1.102    53 C    0.939
    55   6 C    3.993 --    53 C    0.996    58 H    0.983    57 H    0.983
                            56 H    0.982
    56   1 H    0.997 --    55 C    0.982
    57   1 H    0.997 --    55 C    0.983
    58   1 H    0.997 --    55 C    0.983
    59   6 C    3.996 --    53 C    0.991    61 H    0.984    60 H    0.983
                            62 H    0.982
    60   1 H    0.998 --    59 C    0.983
    61   1 H    0.997 --    59 C    0.984
    62   1 H    0.998 --    59 C    0.982
    63   5 B    3.352 --    64 O    1.110    75 O    1.109    19 Ir   0.872
    64   8 O    2.226 --    63 B    1.110    65 C    0.940
    65   6 C    3.938 --    70 C    0.996    66 C    0.991    64 O    0.940
                            74 C    0.937
    66   6 C    3.993 --    65 C    0.991    69 H    0.983    68 H    0.983
                            67 H    0.979
    67   1 H    0.997 --    66 C    0.979
    68   1 H    0.997 --    66 C    0.983
    69   1 H    0.997 --    66 C    0.983
    70   6 C    3.992 --    65 C    0.996    72 H    0.984    73 H    0.982
                            71 H    0.982
    71   1 H    0.996 --    70 C    0.982
    72   1 H    0.997 --    70 C    0.984
    73   1 H    0.997 --    70 C    0.982
    74   6 C    3.937 --    76 C    0.995    80 C    0.991    75 O    0.939
                            65 C    0.937
    75   8 O    2.226 --    63 B    1.109    74 C    0.939
    76   6 C    3.993 --    74 C    0.995    77 H    0.983    78 H    0.983
                            79 H    0.982
    77   1 H    0.996 --    76 C    0.983
    78   1 H    0.997 --    76 C    0.983
    79   1 H    0.997 --    76 C    0.982
    80   6 C    3.995 --    74 C    0.991    81 H    0.984    83 H    0.984
                            82 H    0.983
    81   1 H    0.998 --    80 C    0.984
    82   1 H    0.997 --    80 C    0.983
    83   1 H    0.996 --    80 C    0.984
    84   1 H    0.997 --     4 C    0.969
    85   1 H    0.997 --    14 C    0.969
    86   6 C    3.948 --    88 C    1.496    87 C    1.284    19 Ir   0.603
                            20 H    0.329
    87   6 C    3.974 --    89 C    1.541    86 C    1.284    90 H    0.971
    88   6 C    3.940 --    86 C    1.496    91 N    1.217    92 H    0.966
                            89 C    0.131
    89   6 C    3.936 --    87 C    1.541    91 N    1.213    93 H    0.968
                            88 C    0.131
    90   1 H    1.000 --    87 C    0.971
    91   7 N    3.626 --    88 C    1.217    89 C    1.213    94 C    0.997
    92   1 H    0.999 --    88 C    0.966
    93   1 H    0.998 --    89 C    0.968
    94   6 C    3.970 --    91 N    0.997    95 C    0.990    97 H    0.959
                            96 H    0.947
    95   6 C    3.979 --    98 N    1.411    99 C    1.398    94 C    0.990
                           103 C    0.111
    96   1 H    0.993 --    94 C    0.947
    97   1 H    0.992 --    94 C    0.959
    98   7 N    3.054 --   100 C    1.437    95 C    1.411   101 C    0.101
    99   6 C    3.991 --   101 C    1.449    95 C    1.398   102 H    0.966
                           100 C    0.115
   100   6 C    3.980 --    98 N    1.437   103 C    1.429   104 H    0.963
                            99 C    0.115
   101   6 C    3.990 --    99 C    1.449   103 C    1.436   105 H    0.969
                            98 N    0.101
   102   1 H    0.998 --    99 C    0.966
   103   6 C    3.991 --   101 C    1.436   100 C    1.429   106 H    0.969
                            95 C    0.111
   104   1 H    0.997 --   100 C    0.963
   105   1 H    0.998 --   101 C    0.969
   106   1 H    0.997 --   103 C    0.969
 ---------------------------------------------------------------------------

Topologies differ in total number of bonds
Writing topology from bond orders to xtbtopo.mol

molecular dipole:
                 x           y           z       tot (Debye)
 q only:        0.185       0.336       0.519
   full:       -1.190       0.962      -0.051       3.892
molecular quadrupole (traceless):
                xx          xy          yy          xz          yz          zz
 q only:       -0.663      -0.259      -7.978       1.711      10.241       8.641
  q+dip:        1.738       2.105     -10.945      -2.734      21.539       9.208
   full:       -1.100       4.601      -9.073      -5.829      17.809      10.173


           -------------------------------------------------
          | TOTAL ENERGY             -152.891362022771 Eh   |
          | GRADIENT NORM               0.036534084864 Eh/α |
          | HOMO-LUMO GAP               0.883113381221 eV   |
           -------------------------------------------------

------------------------------------------------------------------------
 * finished run on 2021/10/08 at 07:18:42.615     
------------------------------------------------------------------------
 total:
 * wall-time:     0 d,  0 h,  0 min,  0.157 sec
 *  cpu-time:     0 d,  0 h,  0 min,  0.920 sec
 * ratio c/w:     5.855 speedup
 SCF:
 * wall-time:     0 d,  0 h,  0 min,  0.114 sec
 *  cpu-time:     0 d,  0 h,  0 min,  0.679 sec
 * ratio c/w:     5.976 speedup

