106
 energy: -152.876046358734 gnorm: 0.076334599804 xtb: 6.4.0 (f63f532)
N        -0.96510000000000   -2.11530000000001   -0.24090000000000
C        -2.24700000000000   -1.69840000000001   -0.36220000000000
C        -3.14040000000000   -2.36820000000000   -1.21200000000000
C        -2.70220000000000   -3.47560000000000   -1.93049999999999
C        -1.37780000000000   -3.89880000000001   -1.78760000000001
C        -0.54290000000000   -3.18669999999999   -0.93509999999997
H         0.49810000000000   -3.45630000000000   -0.78940000000000
H        -0.99570000000000   -4.76029999999999   -2.32770000000000
H        -4.16500000000000   -2.02890000000000   -1.31830000000000
C        -2.62130000000000   -0.50950000000000    0.44100000000000
N        -1.62600000000000    0.07330000000000    1.16020000000000
C        -1.89680000000000    1.15240000000000    1.91690000000000
C        -3.17230000000000    1.70330000000000    1.99649999999999
C        -4.20510000000000    1.11740000000000    1.26270000000000
C        -3.92610000000001    0.00250000000000    0.47820000000000
H        -4.71960000000001   -0.46420000000000   -0.09520000000000
H        -3.34630000000000    2.57510000000000    2.62070000000000
H        -1.04450000000000    1.57420000000000    2.43690000000000
Ir        0.42150000000000   -0.81650000000000    0.91330000000000
H         0.87260000000000   -2.23030000000000    1.54050000000000
B         0.50670000000000    0.41560000000000   -0.81540000000000
O         0.19500000000000   -0.04700000000001   -2.09149999999999
C         0.00650000000000    1.10040000000000   -2.95430000000000
C         0.49019999999999    0.74739999999999   -4.35780000000000
H         1.51610000000000    0.37380000000000   -4.33700000000000
H         0.44730000000000    1.62240000000001   -5.01670000000000
H        -0.14740000000000   -0.03390000000001   -4.78430000000000
C        -1.50120000000000    1.39560000000000   -2.96670000000000
H        -1.75370000000000    2.21459999999999   -3.64850000000000
H        -2.03200000000000    0.49450000000000   -3.28930000000000
H        -1.85170000000000    1.65210000000000   -1.96220000000000
C         0.84230000000000    2.20670000000000   -2.22040000000001
O         0.75200000000000    1.78260000000000   -0.83690000000000
C         2.32930000000000    2.18620000000000   -2.59900000000000
H         2.74130000000000    1.18500000000000   -2.45750000000000
H         2.48870000000000    2.51300000000000   -3.63180000000000
H         2.87200000000000    2.86270000000000   -1.93200000000000
C         0.28440000000000    3.62290000000000   -2.33660000000000
H        -0.72650000000000    3.69040000000000   -1.92910000000000
H         0.92130000000000    4.31480000000000   -1.77610000000000
H         0.26430000000000    3.94810000000000   -3.38320000000000
B         1.56300000000000    0.60960000000000    1.84840000000000
O         2.92780000000000    0.55230000000000    2.15020000000000
C         3.36330000000001    1.88660000000000    2.50260000000000
C         4.53140000000000    1.78590000000000    3.47740000000001
H         4.27910000000000    1.16090000000000    4.33689999999999
H         5.39390000000000    1.33790000000000    2.97340000000000
H         4.82390000000000    2.77870000000000    3.83820000000000
C         3.79700000000000    2.56850000000000    1.19669999999999
H         4.20020000000000    3.57090000000000    1.37680000000000
H         4.56740000000000    1.95560000000000    0.72110000000000
H         2.95240000000000    2.63260000000000    0.50540000000000
C         2.05040000000000    2.50090000000000    3.09320000000001
O         1.03750000000000    1.81620000000000    2.31910000000000
C         1.89100000000000    4.00450000000000    2.88650000000000
H         1.87290000000000    4.25440000000000    1.82410000000000
H         0.94940000000000    4.34260000000000    3.33170000000000
H         2.71080000000000    4.55150000000000    3.36630000000000
C         1.82469999999999    2.13200000000001    4.56520000000000
H         1.92610000000000    1.05330000000000    4.71320000000000
H         2.52610000000000    2.65280000000000    5.22540000000000
H         0.80630000000000    2.41580000000000    4.84900000000000
B         2.27820000000000   -1.33090000000000    0.17410000000000
O         2.89460000000000   -2.57740000000000    0.38450000000000
C         4.26930000000000   -2.48200000000000   -0.07210000000000
C         5.10900000000000   -2.05380000000000    1.14010000000000
H         4.76350000000000   -1.08740000000000    1.51750000000000
H         4.98050000000000   -2.79470000000000    1.93590000000000
H         6.17420000000000   -1.99290000000000    0.89300000000000
C         4.71950000000000   -3.84660000000000   -0.58470000000000
H         4.75280000000000   -4.56130000000000    0.24420000000000
H         5.72330000000000   -3.78370000000000   -1.02010000000000
H         4.03500000000000   -4.23600000000000   -1.34170000000000
C         4.16440000000000   -1.36220000000000   -1.16300000000000
O         3.08520000000000   -0.55030000000000   -0.65400000000000
C         5.40720000000000   -0.48870000000000   -1.31550000000000
H         6.27320000000000   -1.09010000000000   -1.61530000000000
H         5.23300000000000    0.26930000000000   -2.08590000000000
H         5.64270000000000    0.02650000000000   -0.38240000000000
C         3.71800000000000   -1.89830000000000   -2.53110000000000
H         2.82530000000000   -2.52160000000000   -2.42740000000000
H         3.46090000000000   -1.05250000000000   -3.17550000000000
H         4.50570000000000   -2.48290000000000   -3.01790000000000
H        -3.38500000000000   -4.00130000000000   -2.59310000000001
H        -5.21400000000000    1.52080000000000    1.29960000000000
C         0.23590000000000   -1.68140000000000    2.96030000000000
C        -0.97240694588453   -2.05911575368835    3.59737368893615
C         1.22935768390685   -1.92038168889457    3.88468057957770
C        -0.66764578869425   -2.46844612509628    4.87125403689554
H        -1.96361299750260   -2.02832265695049    3.17619056228475
N         0.68365506491187   -2.39169802644961    5.04185476839050
H         2.29161511576807   -1.78707286368486    3.78251399304373
H        -1.31100801654543   -2.82277114929422    5.65801130538708
C         1.43762925233077   -2.88044695445243    6.17791300494165
C         1.55600749656461   -1.85647863884550    7.27802522884328
H         0.94974397147021   -3.78215631417592    6.56148789728348
H         2.44388924614062   -3.12757729074788    5.82690674411191
N         2.63298527748724   -1.06782742014274    7.23352588019361
C         0.59792883765773   -1.75056056347083    8.28103762357387
C         2.78539149701818   -0.15305479647692    8.18604659944776
C         0.77010817529054   -0.79719839734613    9.27377054745207
H        -0.25803392377778   -2.41127671712687    8.28740590410708
C         1.88941651047883    0.02085796776750    9.22761262557087
H         3.67836172749854    0.45452002221441    8.10006681561915
H         0.04601218383885   -0.70018197285512   10.07229743048279
H         2.06515778353527    0.77063056607326    9.98519120349947
106
 energy: -152.882449139659 gnorm: 0.048665680177 xtb: 6.4.0 (f63f532)
N        -0.96110732884771   -2.09994499239583   -0.24846385309898
C        -2.24041607784189   -1.69024979930584   -0.36340031673757
C        -3.13450300380037   -2.36193448211970   -1.20651150834213
C        -2.70426070114758   -3.46320267115106   -1.92167510470060
C        -1.38344282085778   -3.88167714307229   -1.78163240140584
C        -0.55405855109175   -3.16791043007012   -0.93917563111843
H         0.47973161478941   -3.44806417904457   -0.79002511797794
H        -1.00704006924449   -4.74190568076181   -2.31688164381230
H        -4.15517945069330   -2.02656502576068   -1.31095509572619
C        -2.61182995593808   -0.51476545021264    0.43550012103664
N        -1.61811645926185    0.06418965979339    1.14729379674967
C        -1.89665504768870    1.13606899174272    1.89377624710569
C        -3.16302302729784    1.68631727302984    1.98154769062250
C        -4.19558742963537    1.10290704326060    1.25475402256089
C        -3.91480030998084   -0.00360240254645    0.47504152229424
H        -4.70661684755696   -0.46668564828051   -0.09384282985148
H        -3.33773947362028    2.55006937036786    2.60799247234102
H        -1.05369634164630    1.55324711518764    2.42375394364829
Ir        0.42150000000000   -0.81650000000000    0.91330000000000
H         0.87260000000000   -2.23030000000000    1.54050000000000
B         0.49502718942086    0.42293923380316   -0.79050004611441
O         0.17689011366764   -0.03500234161822   -2.06355066163181
C         0.01111796678735    1.09647833136050   -2.94364511012679
C         0.48983872480784    0.74705247033632   -4.34878493111672
H         1.50881547744061    0.37019239620513   -4.32734565106896
H         0.44497113548353    1.62248741607782   -4.99746183047393
H        -0.14895207432773   -0.02915721345719   -4.76891471367186
C        -1.49311253488268    1.39891438061915   -2.97018879879540
H        -1.73195610937555    2.21190659203625   -3.65440089714100
H        -2.02327870920880    0.50163499028023   -3.28969995421366
H        -1.83989951833247    1.65352422441128   -1.96849617902318
C         0.83228635769779    2.20669829683364   -2.21286540585685
O         0.75630298648063    1.78026837818625   -0.83610235606826
C         2.31478103683297    2.19080754987655   -2.60064284553204
H         2.71895113358590    1.19168193346334   -2.45019711433228
H         2.46657343570596    2.51192235975120   -3.63060385062221
H         2.85699597654126    2.86548201380762   -1.93902206075910
C         0.28067663872988    3.62279139688532   -2.34038770562000
H        -0.72263036171947    3.69164798769593   -1.92794514821466
H         0.92020811241118    4.30656075686082   -1.78358215123114
H         0.26287153716600    3.93523998184345   -3.38474648290964
B         1.56271945982249    0.60534155554032    1.87455843129222
O         2.92679339136325    0.56171422879972    2.14280112514534
C         3.36317167358069    1.88469890377056    2.51073175298902
C         4.53311977920144    1.78945978259095    3.48126889318956
H         4.27949717267161    1.16088997600716    4.33076760765989
H         5.38808790649235    1.34515545062563    2.97340226158873
H         4.81520879987371    2.78042864183817    3.83646907124075
C         3.79826004494034    2.57257197597983    1.21183147326695
H         4.19928089889861    3.56884364974769    1.39483731915955
H         4.56243230839925    1.96156739919993    0.73441117742905
H         2.95006218265028    2.62447713863190    0.53052188418246
C         2.05352893588105    2.50374358872993    3.09038715739390
O         1.04157795858553    1.80600427326273    2.33934629162254
C         1.89414708263482    4.00612073457131    2.88874518604807
H         1.86849038803527    4.24937730291873    1.83033051428419
H         0.95652827122468    4.33561333290584    3.33494533677503
H         2.71451561748208    4.54324463304324    3.36442960436730
C         1.83328848955644    2.14013309264723    4.56277517569680
H         1.93770721966983    1.06472702828713    4.70222376103776
H         2.53401990503197    2.66293461246625    5.21107324177139
H         0.81830358159194    2.41778392480107    4.84689255202212
B         2.27820000000000   -1.33090000000000    0.17410000000000
O         2.90183744038071   -2.56244462672124    0.38907311564770
C         4.26621726178216   -2.48354291373725   -0.07798441537873
C         5.11022635420014   -2.05856681675106    1.12801588928106
H         4.75220512236531   -1.09930879348873    1.49951741540572
H         4.97869542189847   -2.79449319295126    1.92022347614678
H         6.16812361371871   -1.99782740669935    0.87647946833641
C         4.72110135888929   -3.84578773310019   -0.58770071074896
H         4.75026507060377   -4.54989822812881    0.24254143045577
H         5.71890869530424   -3.77447393683980   -1.01996496039961
H         4.03516339339937   -4.23322172636561   -1.33623300479772
C         4.16707673756929   -1.36052853613502   -1.15783235263109
O         3.07523400812536   -0.56382888222076   -0.66246580319554
C         5.41040732403637   -0.49235455831712   -1.31563565738786
H         6.26676081768931   -1.09809704386743   -1.61123014034949
H         5.23190238159287    0.25880953975170   -2.08394932148768
H         5.63735950816312    0.02222166345778   -0.38641580816862
C         3.73020275230339   -1.90009769318524   -2.52595129382098
H         2.83785726708470   -2.51509866240455   -2.41683571081223
H         3.47253797874071   -1.05867927090604   -3.16791402376259
H         4.51999219051689   -2.47751122713222   -3.00389777365217
H        -3.38349513871586   -3.98844285344257   -2.57967045381335
H        -5.19958741691384    1.50475655671029    1.29528489577513
C         0.23590000000002   -1.68140000000000    2.96030000000000
C        -0.97294041067696   -2.05810021697960    3.59908866262099
C         1.22819605010416   -1.91997263921319    3.88708266125233
C        -0.66718943530452   -2.46526045397566    4.87185047781586
H        -1.96252793228179   -2.02725154589567    3.17919088392114
N         0.68221787098768   -2.38838268916327    5.04244271979221
H         2.28757202643678   -1.78753971714864    3.78595995111076
H        -1.30923512867727   -2.81786100468192    5.65727994292955
C         1.43421932198568   -2.87480717818616    6.17737884943000
C         1.55446570711552   -1.85062722942178    7.27894685928688
H         0.94657972931379   -3.77573892182031    6.56160282613574
H         2.43917560129088   -3.12321609371562    5.82773139896998
N         2.62724325225043   -1.06607081537727    7.23572427926675
C         0.59681066317337   -1.74604112861147    8.28159522069751
C         2.78265966120937   -0.15496297031938    8.18365456023657
C         0.76881010251040   -0.79467723571035    9.27371325693371
H        -0.25773951545974   -2.40583190517651    8.28757018327427
C         1.88835172412910    0.02174555663034    9.22692337785168
H         3.67544921385816    0.45080217202671    8.09667110316549
H         0.04626389217783   -0.69763214399434   10.07137983377611
H         2.06578555460520    0.77068700045578    9.98309631363204
106
 energy: -152.884042329477 gnorm: 0.039589775921 xtb: 6.4.0 (f63f532)
N        -0.95156142694950   -2.09014955351357   -0.25725275370340
C        -2.23018746572485   -1.68315238064370   -0.36712358787774
C        -3.12929631307848   -2.35512934680320   -1.20436176150324
C        -2.70742865233728   -3.45365677764599   -1.91959671019515
C        -1.38630920695576   -3.87192810484240   -1.78254173030977
C        -0.55739217575921   -3.15763564163900   -0.94604641816236
H         0.47491361235714   -3.44225520989251   -0.80401942216329
H        -1.01552028856997   -4.73199888235658   -2.31566167572198
H        -4.14882581809344   -2.02079556749153   -1.30086553000735
C        -2.59811844898507   -0.51779044489253    0.42748147425344
N        -1.60632105954804    0.05599687193957    1.14088735814514
C        -1.89171515967516    1.12159201798222    1.88375229532067
C        -3.15320232571639    1.67317219315166    1.97363100036049
C        -4.18688378217937    1.09104994329816    1.24679485071168
C        -3.90213528292721   -0.00883556262688    0.46747286352344
H        -4.69155455685085   -0.47365721694816   -0.09910601914116
H        -3.32840585033478    2.53305329446999    2.59982108092249
H        -1.05409717080135    1.54290192119093    2.41573314567200
Ir        0.42150000000000   -0.81650000000000    0.91330000000000
H         0.87260000000000   -2.23030000000000    1.54050000000000
B         0.49896929414152    0.43366077796991   -0.76757315324127
O         0.15889577633461   -0.02469420943244   -2.03428645613877
C         0.00718711892115    1.09370390405487   -2.92405877906246
C         0.49056883574669    0.73912799702598   -4.32682330295366
H         1.50585263449852    0.35854607910260   -4.30640472033417
H         0.44575260665555    1.61750448414212   -4.96600330508964
H        -0.15223678292133   -0.03111957066913   -4.74529677587146
C        -1.49549035096173    1.40516185910242   -2.97010969536068
H        -1.71613120141469    2.21429123057685   -3.66013375161853
H        -2.02505394294033    0.51014778567093   -3.29036140241491
H        -1.84510441078385    1.66339434537671   -1.97257203865189
C         0.82504178324592    2.20660427363040   -2.20050561818189
O         0.76108339537502    1.78574131881857   -0.82863444931792
C         2.30491603620128    2.19587114645675   -2.59921338337784
H         2.70638721870298    1.19843549939461   -2.44141444574179
H         2.44340276787831    2.50917767705717   -3.63030805924946
H         2.84707409947253    2.87533368687548   -1.94605793667141
C         0.27059569120791    3.62112505010530   -2.33797898692342
H        -0.72861920476956    3.69582176729582   -1.92203776607023
H         0.91515791691896    4.30399772978359   -1.79096769420892
H         0.25313607855548    3.91643072957785   -3.38392080501674
B         1.56847419754723    0.61325557049260    1.87435945086136
O         2.92594448035725    0.57058659738500    2.13603558594475
C         3.36262643015221    1.88416406060171    2.51578349073111
C         4.53069267523837    1.78963603243554    3.48956321372952
H         4.27977363062805    1.15639723154977    4.33329764201636
H         5.38368935929069    1.35292079294205    2.97761943774681
H         4.80223387354126    2.78054491456338    3.84252662456898
C         3.80174341018947    2.58067134479889    1.22305025076312
H         4.19847283926261    3.57342519054150    1.41384395137732
H         4.56544188005230    1.97280305149231    0.74557349300253
H         2.95186453195803    2.62658094514298    0.54642637718017
C         2.05431822340704    2.50116119055850    3.09354602539861
O         1.04394589961179    1.79701675676004    2.35671356327233
C         1.89577388248529    4.00346492763805    2.88954955548078
H         1.86203975000808    4.24454925591267    1.83298522189881
H         0.96305378971624    4.32931932979750    3.34185196564356
H         2.71990358519314    4.53247827242855    3.35981641021275
C         1.84642298175944    2.14728962604056    4.57093726476141
H         1.95640999402000    1.07390335016163    4.70640533469573
H         2.54869663279875    2.67641274000566    5.20706829238955
H         0.83294242619912    2.41990360406932    4.85647410172464
B         2.27820000000000   -1.33090000000001    0.17410000000000
O         2.90475784225649   -2.55108640865191    0.39693019125590
C         4.25967951896555   -2.48201885982649   -0.07857610438544
C         5.11390555804344   -2.06057788943762    1.12105796252688
H         4.74933628886393   -1.10507461197440    1.49016215963459
H         4.98398497649194   -2.79585978035752    1.91048971917908
H         6.16608557565674   -1.99935848637475    0.86072823069622
C         4.71415516812788   -3.84396470108850   -0.59098837123578
H         4.74566955853045   -4.54141443714960    0.24092950281916
H         5.70793074498831   -3.76360377350961   -1.02224285767151
H         4.02811383948968   -4.23317653829597   -1.33497803900544
C         4.16358653887348   -1.36097947698169   -1.15637613375252
O         3.06493609694161   -0.57355356148798   -0.67112993500280
C         5.40852652692506   -0.49451511521292   -1.31000822843521
H         6.25731845285044   -1.10749332553147   -1.59976794788579
H         5.23158256765392    0.24988721509652   -2.08136086268918
H         5.63160439248071    0.02245884852365   -0.38389975884488
C         3.74154710560266   -1.90445907004230   -2.52833917657342
H         2.85008864718351   -2.51654091433373   -2.41813745145414
H         3.48755287754574   -1.06504219094416   -3.17100371556677
H         4.53746151093799   -2.47781938543033   -2.99335866375518
H        -3.38800635029739   -3.97964083433052   -2.57120223025031
H        -5.18939399279463    1.48925283349116    1.29088639124890
C         0.23590000000005   -1.68140000000000    2.96029999999999
C        -0.97443079807249   -2.05488932997300    3.59979661313183
C         1.22671653206414   -1.91917605357568    3.88950047630004
C        -0.66902604579065   -2.45918324323959    4.87296461788727
H        -1.96296047395134   -2.02376876941390    3.17983036275887
N         0.67919154518046   -2.38428571096608    5.04350823078984
H         2.28501646236446   -1.78859979125863    3.78896931597397
H        -1.31132726809904   -2.80926157063887    5.65798585887893
C         1.42857115954876   -2.86950385656525    6.17782802506976
C         1.55065194709400   -1.84384851569928    7.27944424512625
H         0.94006091799579   -3.76883024458716    6.56411208532658
H         2.43334341113973   -3.11931661488554    5.83050516346422
N         2.62141511647411   -1.06233422062962    7.23682965087468
C         0.59299211492111   -1.73930692593606    8.28235124242229
C         2.78076009426232   -0.15324465752560    8.18190368779375
C         0.76697071958383   -0.78887505287543    9.27427812950148
H        -0.26157099442435   -2.39780244193536    8.28846152949770
C         1.88772719227933    0.02595360115562    9.22705883402262
H         3.67426154360769    0.45074706432977    8.09495871392489
H         0.04569741875784   -0.69103236790208   10.07198998852076
H         2.06730677200252    0.77412737412628    9.98243200005591
106
 energy: -152.884573253932 gnorm: 0.039483132510 xtb: 6.4.0 (f63f532)
N        -0.94170792157256   -2.08794701471274   -0.26565736874601
C        -2.22129092990527   -1.68074533737780   -0.37137602447677
C        -3.12491962090657   -2.35266916296126   -1.20524439647688
C        -2.70861507444552   -3.45141833654395   -1.92166288594588
C        -1.38543097376298   -3.86957803187634   -1.79004875669291
C        -0.55304796125301   -3.15459816210824   -0.95767326881976
H         0.47951038063351   -3.44247609538951   -0.82128330444599
H        -1.01856404574203   -4.73065446342901   -2.32324104815156
H        -4.14438618289973   -2.01651789445098   -1.29557042667092
C        -2.58739968387722   -0.51928736283177    0.42299394131464
N        -1.59610370291409    0.05354905837041    1.13896518320152
C        -1.88477569735921    1.11819870609907    1.88101801276615
C        -3.14624553361720    1.66863094358679    1.97158404187833
C        -4.18058514672948    1.08566947884002    1.24337623227513
C        -3.89271059988957   -0.01122043314865    0.46262848626802
H        -4.67962872655128   -0.47697468627862   -0.10648845458750
H        -3.32280163097888    2.52625650086990    2.59934939171344
H        -1.05043880237608    1.54025219997143    2.41820241558625
Ir        0.42150000000000   -0.81650000000000    0.91330000000000
H         0.87260000000000   -2.23030000000000    1.54050000000000
B         0.48728299532029    0.44733780824300   -0.74959078062743
O         0.13925694278428   -0.01643202653129   -2.01228812026794
C        -0.00077130854050    1.09385374990060   -2.90795623463634
C         0.48950978951325    0.72950331323705   -4.30669535320322
H         1.50242737149119    0.34331249638373   -4.28046740418335
H         0.45146172709563    1.60767968695084   -4.94595257663474
H        -0.15635953334162   -0.03802446491956   -4.72505995805698
C        -1.50242192683497    1.41302797885153   -2.96946435506437
H        -1.70914662978866    2.22003307934692   -3.66569330483895
H        -2.03272527386705    0.51922197091581   -3.29123864338498
H        -1.85998937740230    1.67758158266821   -1.97653281670416
C         0.81792888220434    2.20934892753829   -2.18883038353734
O         0.76222267757158    1.79514991094372   -0.81806357732004
C         2.29640814211930    2.20039531413391   -2.59644246850875
H         2.70026857803705    1.20492393850892   -2.43270770637838
H         2.42584469427036    2.50590238420010   -3.63064256103947
H         2.83967194607466    2.88702564162638   -1.95192358942988
C         0.26158887607576    3.62338699997165   -2.33378621288245
H        -0.73556797926952    3.70164113517038   -1.91390326752133
H         0.90952830571117    4.31079027390766   -1.79662867308821
H         0.23946884256486    3.90647746101123   -3.38276362626394
B         1.56831424392390    0.60735751169900    1.89357014343758
O         2.92813286022652    0.57246941932457    2.13235369689985
C         3.36274754311650    1.88235742475578    2.51992915298222
C         4.53103269554590    1.78757981373542    3.49504041619361
H         4.28265507790416    1.14909075465402    4.33534434790717
H         5.38666855459919    1.35849057797617    2.98127571696640
H         4.79478475234141    2.77882082171784    3.85212844784342
C         3.80395528796692    2.58847094033843    1.23205639460361
H         4.19658422368765    3.58090512839026    1.43042542896695
H         4.57112450305495    1.98550566034243    0.75407102038472
H         2.95505976588673    2.63433893998571    0.55452653508946
C         2.05560593384357    2.49854221269592    3.10116105214620
O         1.04410975350247    1.78779955628562    2.37661592021033
C         1.89483055824983    4.00077451717324    2.89135770567316
H         1.85249414621916    4.23841550555291    1.83427372866103
H         0.96619562104966    4.32796682293982    3.35078681977977
H         2.72379257170658    4.52897255072925    3.35333393338916
C         1.85847281991885    2.15400176591513    4.58332460227651
H         1.97458169945013    1.08203507938303    4.72349415816565
H         2.56341329286530    2.69128239514500    5.20902370666530
H         0.84569205381159    2.42383377413937    4.87296854035212
B         2.27820000000000   -1.33090000000002    0.17409999999999
O         2.90645461801954   -2.54559692725191    0.40509539850474
C         4.25563703207290   -2.48138910499522   -0.07793307399299
C         5.11871060270923   -2.06146479021937    1.11709129478602
H         4.75433930322579   -1.10695074722978    1.48852748230421
H         4.99344788941395   -2.79816975841670    1.90569319274455
H         6.16831606600794   -1.99942536930044    0.84896899604319
C         4.70690926407119   -3.84494777634818   -0.59189229091960
H         4.74220624750148   -4.54090905189843    0.24086592291760
H         5.69853261942794   -3.76169251712541   -1.02663837253943
H         4.01832437882852   -4.23498644398179   -1.33294071046167
C         4.16031386559298   -1.36152137625899   -1.15699259614436
O         3.05702024477690   -0.57822088214171   -0.68005982613105
C         5.40582034648306   -0.49381177807070   -1.30549807096243
H         6.25415160569206   -1.11053028897215   -1.58777757109216
H         5.23337142823577    0.24690243484379   -2.08120997211277
H         5.62416547915876    0.02635007351708   -0.38020658066115
C         3.75098115192105   -1.90857955210546   -2.53248937708091
H         2.86001964277342   -2.52185761865311   -2.42775410145103
H         3.50231058970636   -1.07054293522812   -3.17887203405797
H         4.55320681425710   -2.48089832060272   -2.98694103990828
H        -3.39235547984809   -3.97748293652360   -2.56949467543840
H        -5.18368783787448    1.48134637896319    1.28865305819521
C         0.23590000000010   -1.68139999999999    2.96029999999999
C        -0.97608643890112   -2.05092613729901    3.59929400282849
C         1.22522122205444   -1.91943545274173    3.89097369305486
C        -0.67251805973401   -2.45263481257932    4.87381602089926
H        -1.96412830231744   -2.01855464579203    3.17839100033641
N         0.67537809721951   -2.38045736320251    5.04505637047707
H         2.28382554812655   -1.79109252505789    3.79090373260727
H        -1.31638881296628   -2.79932217339224    5.65910892255631
C         1.42224506070608   -2.86497264497264    6.18022596991469
C         1.54577547034723   -1.83762167579972    7.28072489764834
H         0.93192290016795   -3.76242706228384    6.56850587168789
H         2.42717467939489   -3.11701371590276    5.83494462470771
N         2.61712879387572   -1.05796075412799    7.23755875556556
C         0.58810419650082   -1.73123581006590    8.28383685385046
C         2.77938310134588   -0.14893715317420    8.18169282530059
C         0.76478230503785   -0.78073432359051    9.27532352478353
H        -0.26764207026029   -2.38808641881168    8.29051934750665
C         1.88714055139126    0.03213375403516    9.22774637193977
H         3.67378433665485    0.45372881750838    8.09481308499229
H         0.04428801999240   -0.68147053906065   10.07358185667836
H         2.06869729892207    0.77976168202438    9.98299422435993
106
 energy: -152.885168349123 gnorm: 0.039755994618 xtb: 6.4.0 (f63f532)
N        -0.92635914016853   -2.08624415386708   -0.28051556619435
C        -2.20792775330862   -1.67873102084320   -0.37942808250160
C        -3.11716959023371   -2.35135222689022   -1.20881188026710
C        -2.70745812018140   -3.45062411526751   -1.92735899502939
C        -1.38136866709053   -3.86801695651000   -1.80459202673741
C        -0.54313138340456   -3.15187159906557   -0.97805169489289
H         0.49100189803154   -3.44155593510131   -0.85179617666577
H        -1.01899247630773   -4.72965809926584   -2.34020810671584
H        -4.13695135458900   -2.01274836948546   -1.29059257497244
C        -2.57217980791458   -0.52079240730215    0.41683325022773
N        -1.58172473583712    0.04969940560812    1.13922371048788
C        -1.87397722059392    1.11389345026071    1.88244157606472
C        -3.13590377281314    1.66337865118770    1.97174836259014
C        -4.17018533757598    1.08091571206480    1.23951415203621
C        -3.87843601638386   -0.01184708780512    0.45532621652981
H        -4.66190596612999   -0.47758852625464   -0.11914834065844
H        -3.31427100843552    2.51874846569386    2.60195515738500
H        -1.04298435789009    1.53742776107155    2.42490558153711