105
 energy: -151.582527959694 gnorm: 0.001069370953 xtb: 6.4.1 (1a32961)
N        -0.96510000000002   -2.11529999999999   -0.24090000000000
C        -2.24700000000000   -1.69840000000001   -0.36219999999997
C        -3.14040000000001   -2.36819999999999   -1.21199999999998
C        -2.70220000000001   -3.47560000000000   -1.93050000000001
C        -1.37779999999993   -3.89880000000003   -1.78759999999999
C        -0.54290000000000   -3.18670000000000   -0.93509999999999
H         0.49810000000000   -3.45630000000000   -0.78940000000000
H        -0.99570000000001   -4.76030000000002   -2.32770000000000
H        -4.16499999999998   -2.02890000000000   -1.31830000000000
C        -2.62130000000001   -0.50950000000000    0.44100000000003
N        -1.62600000000000    0.07330000000000    1.16020000000003
C        -1.89679999999999    1.15239999999999    1.91689999999999
C        -3.17229999999999    1.70329999999998    1.99650000000000
C        -4.20509999999999    1.11739999999999    1.26270000000002
C        -3.92610000000001    0.00249999999998    0.47820000000001
H        -4.71960000000001   -0.46420000000000   -0.09520000000001
H        -3.34630000000000    2.57509999999999    2.62070000000002
H        -1.04450000000001    1.57420000000000    2.43690000000001
Ir        0.42150000000000   -0.81650000000000    0.91330000000000
H         0.87260000000000   -2.23030000000000    1.54050000000000
B         0.50670000000000    0.41560000000000   -0.81540000000000
O         0.19500000000000   -0.04700000000000   -2.09150000000001
C         0.00649999999997    1.10040000000000   -2.95429999999997
C         0.49020000000006    0.74740000000005   -4.35780000000000
H         1.51609999999999    0.37380000000000   -4.33700000000000
H         0.44730000000000    1.62239999999999   -5.01669999999999
H        -0.14740000000000   -0.03390000000000   -4.78430000000000
C        -1.50120000000000    1.39560000000000   -2.96669999999998
H        -1.75370000000000    2.21459999999998   -3.64850000000001
H        -2.03200000000000    0.49449999999999   -3.28929999999999
H        -1.85170000000000    1.65210000000000   -1.96219999999999
C         0.84229999999998    2.20670000000001   -2.22040000000001
O         0.75200000000000    1.78259999999999   -0.83690000000000
C         2.32930000000003    2.18620000000000   -2.59899999999999
H         2.74130000000000    1.18500000000001   -2.45750000000000
H         2.48870000000000    2.51300000000000   -3.63180000000001
H         2.87200000000000    2.86270000000001   -1.93200000000000
C         0.28440000000000    3.62290000000000   -2.33660000000003
H        -0.72650000000001    3.69040000000000   -1.92910000000000
H         0.92130000000000    4.31480000000001   -1.77610000000001
H         0.26430000000000    3.94810000000000   -3.38320000000002
B         1.56300000000000    0.60960000000000    1.84840000000000
O         2.92780000000001    0.55230000000000    2.15020000000000
C         3.36329999999998    1.88659999999998    2.50260000000001
C         4.53139999999998    1.78590000000002    3.47740000000000
H         4.27910000000000    1.16090000000000    4.33690000000001
H         5.39389999999999    1.33790000000000    2.97340000000000
H         4.82389999999999    2.77870000000001    3.83820000000000
C         3.79700000000000    2.56850000000000    1.19670000000000
H         4.20020000000000    3.57090000000000    1.37680000000000
H         4.56740000000000    1.95560000000000    0.72110000000000
H         2.95240000000000    2.63260000000000    0.50540000000000
C         2.05039999999999    2.50089999999999    3.09320000000000
O         1.03749999999998    1.81620000000000    2.31910000000000
C         1.89100000000000    4.00450000000000    2.88649999999999
H         1.87290000000000    4.25440000000001    1.82409999999999
H         0.94940000000001    4.34260000000000    3.33169999999999
H         2.71080000000001    4.55149999999999    3.36629999999999
C         1.82470000000002    2.13199999999999    4.56520000000000
H         1.92610000000000    1.05329999999999    4.71320000000000
H         2.52610000000000    2.65280000000000    5.22539999999998
H         0.80629999999999    2.41580000000000    4.84900000000001
B         2.27819999999999   -1.33090000000000    0.17410000000000
O         2.89460000000000   -2.57740000000000    0.38450000000001
C         4.26929999999998   -2.48200000000000   -0.07210000000002
C         5.10899999999999   -2.05380000000001    1.14010000000000
H         4.76350000000000   -1.08739999999999    1.51750000000000
H         4.98050000000000   -2.79470000000002    1.93590000000001
H         6.17420000000000   -1.99290000000000    0.89300000000000
C         4.71950000000001   -3.84660000000000   -0.58469999999998
H         4.75280000000000   -4.56129999999996    0.24420000000000
H         5.72329999999995   -3.78370000000000   -1.02010000000001
H         4.03500000000000   -4.23600000000000   -1.34170000000000
C         4.16440000000000   -1.36220000000001   -1.16299999999998
O         3.08520000000000   -0.55030000000000   -0.65400000000001
C         5.40720000000001   -0.48870000000000   -1.31550000000001
H         6.27319999999999   -1.09010000000000   -1.61530000000000
H         5.23300000000000    0.26930000000000   -2.08590000000001
H         5.64270000000000    0.02650000000001   -0.38240000000000
C         3.71800000000003   -1.89830000000003   -2.53109999999995
H         2.82529999999998   -2.52160000000001   -2.42740000000000
H         3.46090000000000   -1.05249999999999   -3.17549999999999
H         4.50570000000003   -2.48290000000000   -3.01790000000001
H        -3.38499999999999   -4.00130000000000   -2.59310000000000
H        -5.21400000000000    1.52079999999999    1.29960000000001
C         0.23589999999999   -1.68140000000000    2.96030000000000
C        -0.99138952587682   -2.14999870014634    3.42413425959589
C         1.29703950266969   -1.74224710202472    3.86578030774221
C        -1.09623653468100   -2.60524589247610    4.72799337816287
H        -1.86149168202944   -2.19890083225910    2.78264414352337
C         1.11839536196200   -2.25081575914302    5.15061420980428
H         2.28734085966966   -1.46387433119678    3.53390693551426
N        -0.07795621474739   -2.68365394099739    5.57901767394094
H        -2.04071680273684   -2.97399194300258    5.11405707209201
C         2.26618874052266   -2.43911641129593    6.05666502147988
C         3.36635985542026   -1.57894902851810    6.02582604069962
C         2.28937441630671   -3.52672639021962    6.93408491417520
C         4.46252874014005   -1.80553012135440    6.84505820412571
H         3.36020153886735   -0.72700897924546    5.35845052040648
C         3.39228430283231   -3.75591810147094    7.74340944885023
H         1.43561482022628   -4.19209301417929    6.95778923654982
C         4.48099111436039   -2.89732074708082    7.69954206647276
H         5.30676339605925   -1.12843975444402    6.81213848333680
H         3.40421460826979   -4.61143827253772    8.40677194409986
H         5.34265497618463   -3.07827159609610    8.32943152289096
