105
 energy: -151.597206621961 gnorm: 0.000285608866 xtb: 6.4.1 (1a32961)
N        -0.89387400321493   -2.00367207289269   -0.41012417985762
C        -2.16266927565061   -1.57013918763407   -0.53476525626555
C        -3.05021518684390   -2.19151603749166   -1.42355700417192
C        -2.62192653683417   -3.24918970657346   -2.19488422048511
C        -1.30290040347962   -3.67780559551291   -2.06404846531274
C        -0.49053446922609   -3.02498032571552   -1.16119699144974
H         0.53737849280783   -3.32729034647528   -1.01904073379906
H        -0.92368274238031   -4.50107458210783   -2.64714230159483
H        -4.06875890795133   -1.85108712480941   -1.50996167871238
C        -2.54197705698657   -0.43440915858128    0.29558090887659
N        -1.60076116834882    0.03682139190675    1.14202671337202
C        -1.90802056505061    1.06814760966951    1.92655723476024
C        -3.13869208664336    1.69151903158664    1.92046057160034
C        -4.11440523304905    1.22826355731193    1.04131212069120
C        -3.80763638063995    0.16139525688173    0.22518438157620
H        -4.54792863261329   -0.20672069692126   -0.46538671313575
H        -3.33358725960536    2.51687113026507    2.58585939136451
H        -1.11589799669186    1.40178850268124    2.57918687254484
Ir        0.42149999999996   -0.81650000000011    0.91329999999991
H         0.87260000000003   -2.23030000000004    1.54049999999995
B         0.39955840713629    0.67196318354807   -0.55301729444817
O        -0.31816050693782    0.47251479684023   -1.71926854603183
C        -0.41370436795782    1.69987330101298   -2.45061686624451
C        -0.26621174528404    1.42409325909298   -3.94480939355833
H         0.62372739233081    0.83565851623897   -4.14207981909593
H        -0.21466992898511    2.36095535603860   -4.49347018415376
H        -1.12959469357878    0.86119788333480   -4.29145465062613
C        -1.81080170654991    2.27633669256836   -2.17806875187542
H        -1.97641385404542    3.18990362650126   -2.74146258958877
H        -2.55524564416688    1.53878529575175   -2.47202217785993
H        -1.93374345753889    2.47288310505528   -1.11476121514387
C         0.72915619267328    2.56128254118231   -1.82023723372843
O         0.90339399531687    1.95132031187352   -0.53387719968434
C         2.06117983581683    2.40594200201901   -2.56392001312349
H         2.32033765739673    1.35113613834874   -2.61511277482253
H         2.01333934548352    2.83711513127717   -3.55964842669461
H         2.83795199517005    2.91116690619718   -1.99463060775543
C         0.40472606371735    4.04455652321916   -1.65570331688355
H        -0.42709589201613    4.19234776178269   -0.97395171396103
H         1.27304325877246    4.55573044682289   -1.24686173919077
H         0.16411312452416    4.48182432050227   -2.62140133952130
B         1.55393780597602    0.61779593417355    1.92630568420503
O         2.92323658193332    0.72076014754304    1.99518939823113
C         3.29215121481908    1.98669440675042    2.56253976375958
C         4.50944834206524    1.81772009553525    3.46921838303413
H         4.33495880817503    1.05737633854053    4.22282482641961
H         5.36229005023204    1.51180790324672    2.86855093610599
H         4.74338221279964    2.76053801303065    3.95627763875453
C         3.65219139497577    2.90064339301375    1.38479360423794
H         3.92769176343191    3.89579132462536    1.72074454779860
H         4.49225401801221    2.46266940198033    0.85027753190174
H         2.80742450106153    2.94516137057559    0.70203614939661
C         1.98028385475084    2.42955427958752    3.29441590057787
O         0.97500029293603    1.64362171626332    2.63963522215574
C         1.63587143825371    3.91091476209843    3.15292985978498
H         1.45767131902690    4.16428173640966    2.11324089426758
H         0.73015228289410    4.12150286523315    3.71635142196125
H         2.44308250820439    4.52189767243930    3.54774715469313
C         1.95732865358188    2.04438103983731    4.77916948505145
H         2.14685170416356    0.98062377240342    4.89516144704644
H         2.68868722349308    2.61421553154948    5.34385168304791
H         0.96659748109129    2.24887538572059    5.17863926051578
B         2.27819999999912   -1.33090000000065    0.17410000000134
O         3.14486841648325   -2.25233033471583    0.72098215033686
C         4.41224891594158   -2.20359028493286    0.05202449460984
C         5.35802908333865   -1.41925712643688    0.96783771515988
H         4.91139472722475   -0.45459439230627    1.19110378794359
H         5.46186073172104   -1.96442243121353    1.90278824657668
H         6.33866426340085   -1.29626641829706    0.51887560523395
C         4.94685385437908   -3.62384108239390   -0.13137994064926
H         5.12853222646383   -4.05859527100306    0.84794341789055
H         5.88034334694524   -3.60230510060300   -0.68671471805141
H         4.23097341297314   -4.25284745596677   -0.64977029744918
C         4.07466573276541   -1.44422010552172   -1.28005385055569
O         2.81648854229479   -0.81907435433371   -0.98343113476214
C         5.08372649067352   -0.36803223870328   -1.67755459109407
H         6.07032280222017   -0.80376291692653   -1.80830787911833
H         4.77159567632950    0.08242747318759   -2.61641159029582
H         5.12118736102257    0.41177564234818   -0.92479815394799
C         3.84582391544451   -2.38136039169125   -2.47367738254438
H         3.10060864224630   -3.13246269409342   -2.22667794847922
H         3.46667513607828   -1.79519292087507   -3.30738661484710
H         4.77056217097558   -2.86504250747205   -2.77304471764845
H        -3.29520732332882   -3.73399066107767   -2.88526893740588
H        -5.08802941746871    1.69230853407685    0.99830581172268
C         0.23589999999867   -1.68139999999861    2.96029999999909
C        -1.04174966627351   -1.95340339494917    3.44342584834787
C         1.27240263174733   -1.68493047061586    3.89304489247436
C        -1.21356746016315   -2.11342632051729    4.81128056611457
H        -1.89800199963666   -2.04364840104153    2.79178251050655
C         1.01197919203833   -1.88546448945118    5.24744639468093
H         2.28195761047524   -1.56035293526534    3.53758647171753
N        -0.23505618051000   -2.08092813378511    5.69331165804013
H        -2.20002441213870   -2.29288378220642    5.22509854017620
C         2.08144709842396   -1.94427614884364    6.25779121319875
C         3.38253553835747   -1.51804402564368    5.99265738725592
C         1.79724209534924   -2.46122682933712    7.52270789044581
C         4.36614481904121   -1.61172672358472    6.96014226965868
H         3.63233636046520   -1.10872342448178    5.02550686777320
C         2.78217479806851   -2.55586899080263    8.48715277809088
H         0.79007382578508   -2.78885327097293    7.72657660178982
C         4.07242929819078   -2.13331421131609    8.20943453626068
H         5.36889059260660   -1.27689081444993    6.73722639088338
H         2.54471641966639   -2.96319968329282    9.45919298491878
H         4.84428295313124   -2.20912367533659    8.96129112481706
