98
 energy: -143.899794961014 gnorm: 0.074766634164 xtb: 6.4.1 (1a32961)
N        -0.96510000000000   -2.11530000000000   -0.24090000000000
C        -2.24700000000000   -1.69840000000000   -0.36220000000000
C        -3.14040000000000   -2.36820000000000   -1.21200000000000
C        -2.70220000000000   -3.47560000000000   -1.93050000000000
C        -1.37780000000000   -3.89880000000000   -1.78760000000000
C        -0.54290000000000   -3.18670000000000   -0.93510000000000
H         0.49810000000000   -3.45630000000000   -0.78940000000000
H        -0.99570000000000   -4.76030000000000   -2.32770000000000
H        -4.16500000000000   -2.02890000000000   -1.31830000000000
C        -2.62130000000000   -0.50950000000000    0.44100000000000
N        -1.62600000000000    0.07330000000000    1.16020000000000
C        -1.89680000000000    1.15240000000000    1.91690000000000
C        -3.17230000000000    1.70330000000000    1.99650000000000
C        -4.20510000000000    1.11740000000000    1.26270000000000
C        -3.92610000000000    0.00250000000000    0.47820000000000
H        -4.71960000000000   -0.46420000000000   -0.09520000000000
H        -3.34630000000000    2.57510000000000    2.62070000000000
H        -1.04450000000000    1.57420000000000    2.43690000000000
Ir        0.42150000000000   -0.81650000000000    0.91330000000000
H         0.87260000000000   -2.23030000000000    1.54050000000000
B         0.50670000000000    0.41560000000000   -0.81540000000000
O         0.19500000000000   -0.04700000000000   -2.09150000000000
C         0.00650000000000    1.10040000000000   -2.95430000000000
C         0.49020000000000    0.74740000000000   -4.35780000000000
H         1.51610000000000    0.37380000000000   -4.33700000000000
H         0.44730000000000    1.62240000000000   -5.01670000000000
H        -0.14740000000000   -0.03390000000000   -4.78430000000000
C        -1.50120000000000    1.39560000000000   -2.96670000000000
H        -1.75370000000000    2.21460000000000   -3.64850000000000
H        -2.03200000000000    0.49450000000000   -3.28930000000000
H        -1.85170000000000    1.65210000000000   -1.96220000000000
C         0.84230000000000    2.20670000000000   -2.22040000000000
O         0.75200000000000    1.78260000000000   -0.83690000000000
C         2.32930000000000    2.18620000000000   -2.59900000000000
H         2.74130000000000    1.18500000000000   -2.45750000000000
H         2.48870000000000    2.51300000000000   -3.63180000000000
H         2.87200000000000    2.86270000000000   -1.93200000000000
C         0.28440000000000    3.62290000000000   -2.33660000000000
H        -0.72650000000000    3.69040000000000   -1.92910000000000
H         0.92130000000000    4.31480000000000   -1.77610000000000
H         0.26430000000000    3.94810000000000   -3.38320000000000
B         1.56300000000000    0.60960000000000    1.84840000000000
O         2.92780000000000    0.55230000000000    2.15020000000000
C         3.36330000000000    1.88660000000000    2.50260000000000
C         4.53140000000000    1.78590000000000    3.47740000000000
H         4.27910000000000    1.16090000000000    4.33690000000000
H         5.39390000000000    1.33790000000000    2.97340000000000
H         4.82390000000000    2.77870000000000    3.83820000000000
C         3.79700000000000    2.56850000000000    1.19670000000000
H         4.20020000000000    3.57090000000000    1.37680000000000
H         4.56740000000000    1.95560000000000    0.72110000000000
H         2.95240000000000    2.63260000000000    0.50540000000000
C         2.05040000000000    2.50090000000000    3.09320000000000
O         1.03750000000000    1.81620000000000    2.31910000000000
C         1.89100000000000    4.00450000000000    2.88650000000000
H         1.87290000000000    4.25440000000000    1.82410000000000
H         0.94940000000000    4.34260000000000    3.33170000000000
H         2.71080000000000    4.55150000000000    3.36630000000000
C         1.82470000000000    2.13200000000000    4.56520000000000
H         1.92610000000000    1.05330000000000    4.71320000000000
H         2.52610000000000    2.65280000000000    5.22540000000000
H         0.80630000000000    2.41580000000000    4.84900000000000
B         2.27820000000000   -1.33090000000000    0.17410000000000
O         2.89460000000000   -2.57740000000000    0.38450000000000
C         4.26930000000000   -2.48200000000000   -0.07210000000000
C         5.10900000000000   -2.05380000000000    1.14010000000000
H         4.76350000000000   -1.08740000000000    1.51750000000000
H         4.98050000000000   -2.79470000000000    1.93590000000000
H         6.17420000000000   -1.99290000000000    0.89300000000000
C         4.71950000000000   -3.84660000000000   -0.58470000000000
H         4.75280000000000   -4.56130000000000    0.24420000000000
H         5.72330000000000   -3.78370000000000   -1.02010000000000
H         4.03500000000000   -4.23600000000000   -1.34170000000000
C         4.16440000000000   -1.36220000000000   -1.16300000000000
O         3.08520000000000   -0.55030000000000   -0.65400000000000
C         5.40720000000000   -0.48870000000000   -1.31550000000000
H         6.27320000000000   -1.09010000000000   -1.61530000000000
H         5.23300000000000    0.26930000000000   -2.08590000000000
H         5.64270000000000    0.02650000000000   -0.38240000000000
C         3.71800000000000   -1.89830000000000   -2.53110000000000
H         2.82530000000000   -2.52160000000000   -2.42740000000000
H         3.46090000000000   -1.05250000000000   -3.17550000000000
H         4.50570000000000   -2.48290000000000   -3.01790000000000
H        -3.38500000000000   -4.00130000000000   -2.59310000000000
H        -5.21400000000000    1.52080000000000    1.29960000000000
C         0.23590000000000   -1.68140000000000    2.96030000000000
C        -1.02629009662159   -2.04417463794623    3.47409355779263
C         1.32494565368370   -1.89668045879828    3.80962604500853
N        -2.18202438000014   -2.05344940741302    2.69950091978427
C        -1.17787499078571   -2.40406333514330    4.81548572293175
C         1.17158792795846   -2.37290929325847    5.10330458775787
H         2.32187053546749   -1.73432918852303    3.42305157012913
H        -2.03969576608233   -2.39527205426115    1.76197574716776
H        -2.98366296462275   -2.46561793565185    3.15662127704484
C        -0.08505852029836   -2.60066514759461    5.64066190885966
H        -2.17393041076643   -2.60713222941217    5.19092194918904
Cl        2.57200644235152   -2.77275086392797    6.03974681242988
H        -0.21140483531695   -2.97264448416654    6.64783198302636
98
 energy: -143.907510179330 gnorm: 0.044683234057 xtb: 6.4.1 (1a32961)
N        -0.96016837875253   -2.08337640645129   -0.27729725604961
C        -2.23622196601221   -1.66255883023320   -0.40217090587165
C        -3.13506132615647   -2.35137750413044   -1.22519558363356
C        -2.70645725502372   -3.46284085430818   -1.92810631136432
C        -1.38610384254486   -3.88172878139153   -1.78786387491096
C        -0.55465158775581   -3.16247690399291   -0.95174878706790
H         0.47691043200875   -3.44706325586751   -0.79362744336503
H        -1.01047200925144   -4.74592691804865   -2.31690664462571
H        -4.15765337830063   -2.02187709018658   -1.32313741390415
C        -2.60480117147262   -0.47664537990272    0.39105623687004
N        -1.61170711778417    0.10201454356917    1.10241696857504
C        -1.89393163779234    1.15226721605583    1.87449900774588
C        -3.16514384162049    1.69103223560934    1.97869196911341
C        -4.19639656179969    1.10981188961288    1.25121576496846
C        -3.91309426306348    0.01367139836201    0.45632985638798
H        -4.70817752549130   -0.45829270190055   -0.10033707647157
H        -3.34177241513150    2.54667074824620    2.61567842293894
H        -1.05316145775829    1.56140758055164    2.41458738333219
Ir        0.42150000000000   -0.81650000000000    0.91330000000000
H         0.87260000000000   -2.23030000000000    1.54050000000000
B         0.49612084331713    0.42199410240266   -0.79196979509036
O         0.17764551648043   -0.03541259385642   -2.06450859096593
C         0.01153005340911    1.09721603364533   -2.94387581588250
C         0.49034554490841    0.74838916045258   -4.34919371076416
H         1.50942368170737    0.37188489704701   -4.32817661017090
H         0.44550647422170    1.62388004700626   -4.99760607958145
H        -0.14822695552714   -0.02755738894250   -4.77000594748662
C        -1.49281662095788    1.39951245563884   -2.96952365508578
H        -1.73166653763292    2.21265390150517   -3.65332875889006
H        -2.02286749715225    0.50262683012427   -3.29002512792858
H        -1.83928539902088    1.65407770108254   -1.96781865920337
C         0.83342821541758    2.20671950176367   -2.21209658362667
O         0.75773378895953    1.77837662387155   -0.83545321697361
C         2.31606861990390    2.19106391790000   -2.59971685008149
H         2.72080787754242    1.19204895155273   -2.45031878383580
H         2.46822696601452    2.51312606450444   -3.62921590126369
H         2.85825510247281    2.86537268305272   -1.93777419010534
C         0.28150699578890    3.62288470570912   -2.33842034967691
H        -0.72186465026378    3.69155209707820   -1.92632712919699
H         0.92079828539792    4.30657874852095   -1.78137385039552
H         0.26398959697160    3.93630626204010   -3.38241567295890
B         1.56498030576448    0.61139878306121    1.86363552131937
O         2.92637311661072    0.56217688220263    2.13904262887980
C         3.36325693546629    1.88446538812382    2.51000302937683
C         4.53322143939722    1.78821870075411    3.48066588403160
H         4.28121729309948    1.16009960841392    4.33106014487192
H         5.38868127239833    1.34375786276513    2.97361720584739
H         4.81578163545665    2.77857021009414    3.83686330230748
C         3.79865576843393    2.57205911337269    1.21116099673149
H         4.19996583935575    3.56782981088541    1.39525302163552
H         4.56321600536916    1.96121378488231    0.73403615094981
H         2.95066194359547    2.62481917634972    0.52958634862761
C         2.05302564193936    2.50282237690313    3.08996869861150
O         1.04141195670254    1.80624600604008    2.33653437475883
C         1.89386455083479    4.00517815554640    2.88933003962110
H         1.86902122109718    4.24921036697229    1.83109701941466
H         0.95635955542051    4.33437619391396    3.33578018836315
H         2.71401611145479    4.54166622993281    3.36596707067196
C         1.83138665538644    2.13862463879964    4.56219005736643
H         1.93415040186498    1.06290219383022    4.70080004062794
H         2.53210233891521    2.65986305111842    5.21204446150368
H         0.81661203057896    2.41634043974101    4.84641218301240
B         2.27820000000000   -1.33090000000000    0.17410000000000
O         2.90085035822938   -2.56232423509096    0.38990090747960
C         4.26540489306620   -2.48361478965815   -0.07788592771277
C         5.10967450440229   -2.05889565151821    1.12835422705166
H         4.75432137753497   -1.09867403516196    1.50033240868512
H         4.97886940142391   -2.79441308138838    1.92145832883982
H         6.16767227491443   -1.99885305960158    0.87758347227235
C         4.72016143669585   -3.84575809392537   -0.58798699494928
H         4.74996345021751   -4.55044247869627    0.24188401713753
H         5.71809525718650   -3.77428376910466   -1.01984861759367
H         4.03471936049956   -4.23304989180865   -1.33711603620161
C         4.16613398160767   -1.36028663629546   -1.15782728058454
O         3.07408702733273   -0.56375316120249   -0.66204443428640
C         5.40952612295439   -0.49201377317933   -1.31531532878825
H         6.26598498007888   -1.09743028212462   -1.61115114087965
H         5.23125535599031    0.25949434353792   -2.08331740905035
H         5.63746240289037    0.02222739563193   -0.38610444327757
C         3.72888495534668   -1.89908970620141   -2.52620112791108
H         2.83680344237702   -2.51456233572817   -2.41795702651399
H         3.47168226485196   -1.05725369122900   -3.16771571634504
H         4.51873768382236   -2.47615383111609   -3.00430606635047
H        -3.38667669911684   -3.99329000690309   -2.58026041909239
H        -5.20267531629016    1.50427058888059    1.30198750297176
C         0.23589999999999   -1.68139999999999    2.96030000000001
C        -1.02331581129157   -2.05301430914973    3.48177448292039
C         1.32759006259179   -1.87910913415510    3.81217476280073
N        -2.17642320702465   -2.07882619566189    2.70897394924637
C        -1.16575860135301   -2.40520814820604    4.82607220854972
C         1.17970271881601   -2.34749626991670    5.10804383132605
H         2.32201337771984   -1.70864907389357    3.42683933323162
H        -2.03040389322726   -2.42607865067005    1.77690087840116
H        -2.97287832348558   -2.49403537583459    3.16782292779444
C        -0.07253682316757   -2.58476666029557    5.64739242338690
H        -2.15741856644361   -2.61556312495230    5.20475430611037
Cl        2.58757228668822   -2.72879719962604    6.04954120656297
H        -0.19266654475042   -2.95127147434011    6.65517645001630
98
 energy: -143.910256990957 gnorm: 0.034579554886 xtb: 6.4.1 (1a32961)
N        -0.95519731363306   -2.06809152320102   -0.29582225121706
C        -2.22590631693325   -1.63977370605474   -0.42740774594308
C        -3.12803759893475   -2.32678369984073   -1.24631374253108
C        -2.71093009988407   -3.44356806465177   -1.93930801993450
C        -1.39231199111502   -3.86468347023690   -1.79945050061074
C        -0.56176006217754   -3.14537459910192   -0.96826237347447
H         0.46526067484919   -3.43961610417658   -0.80874789987169
H        -1.02507122500089   -4.73484490853043   -2.31787983569714
H        -4.14908068304225   -1.99875381070500   -1.33726364009307
C        -2.59024218946487   -0.46518643016008    0.36645868837847
N        -1.60052951978823    0.10425727285591    1.08228444128229
C        -1.88710154872600    1.14875132067748    1.84733952460123
C        -3.15441264705676    1.68666139704745    1.95871861795622
C        -4.18609534639779    1.10818387490425    1.23181501395970
C        -3.89768436758992    0.02397683457208    0.42964811173201
H        -4.69075242396414   -0.44846126806349   -0.12425359678021
H        -3.33420004665415    2.52713333252046    2.60968141492089
H        -1.05260765956439    1.55996770014667    2.39139196595195
Ir        0.42150000000000   -0.81650000000000    0.91330000000000
H         0.87260000000000   -2.23030000000000    1.54050000000000
B         0.50753977729408    0.43058495556949   -0.77104361081638
O         0.16265847371684   -0.02529881819888   -2.03574894563315
C         0.01010135755822    1.09511256052141   -2.92414529655884
C         0.49220212796527    0.74348815079939   -4.32807529931640
H         1.50742201905989    0.36365012554893   -4.30937668550103
H         0.44648656191723    1.62262465944746   -4.96547012222286
H        -0.15034585303833   -0.02592434506011   -4.74753870993682
C        -1.49254366367401    1.40640941056769   -2.96818590258401
H        -1.71306768076815    2.21604313516461   -3.65687646798141
H        -2.02191051709518    0.51238598431544   -3.29021008862028
H        -1.84072522934520    1.66339291403186   -1.97029962838614
C         0.82828593826180    2.20670415306038   -2.19850716150811
O         0.76716988716183    1.78074035711790   -0.82744556179061
C         2.30788672180318    2.19719517060150   -2.59772852903130
H         2.70956504490322    1.19977416459786   -2.44210484030059
H         2.44642653489523    2.51281925392279   -3.62761010099413
H         2.84983660053931    2.87517420162946   -1.94339066132718
C         0.27357272298942    3.62133116086194   -2.33277035038247
H        -0.72539381044226    3.69512508228835   -1.91719764379524
H         0.91782408378293    4.30303638733838   -1.78468588192945
H         0.25687104507479    3.91860333203962   -3.37772540342951
B         1.57019389689446    0.61452907466433    1.87247683072926
O         2.92639462067467    0.56984178552311    2.13028736491701
C         3.36300316626504    1.88246435852266    2.51472636604863
C         4.53156573283837    1.78700888968799    3.48771619676603
H         4.28305710543069    1.15440143329338    4.33252994475372
H         5.38460404364350    1.34986736982284    2.97651173550898
H         4.80343547180129    2.77704167055057    3.84155886242237
C         3.80234132001645    2.57996244694427    1.22293244790800
H         4.19986511162205    3.57158312222598    1.41517845220248
H         4.56597902039844    1.97216857003134    0.74563247852961
H         2.95241533522925    2.62637486245874    0.54669664706225
C         2.05413921679833    2.49910107051188    3.09235767373516
O         1.04483150130237    1.79459535725350    2.35340026603655
C         1.89604337773432    4.00135037583993    2.89030672051414
H         1.86380694518044    4.24398344109777    1.83441772827379
H         0.96340387348482    4.32594540572120    3.34269500844644
H         2.71940054214971    4.52870616764106    3.36288717133388
C         1.84217539961555    2.14343624242494    4.56867711597970
H         1.94827567889011    1.06941644547088    4.70152184759758
H         2.54447026458598    2.66873662962151    5.20753300545096
H         0.82916327879374    2.41683472111228    4.85338591381386
B         2.27820000000001   -1.33090000000000    0.17410000000001
O         2.90329935656621   -2.55004013876248    0.39787184753158
C         4.25813703498400   -2.48222532442113   -0.07902692623780
C         5.11305659138037   -2.06202254848439    1.12060428813264
H         4.75241518917471   -1.10512723968851    1.48988198039508
H         4.98270553925679   -2.79617849671361    1.91120071744047
H         6.16525889496457   -2.00299404541880    0.86150619985785
C         4.71257368030551   -3.84372002071166   -0.59211657118878
H         4.74433442025400   -4.54167743580391    0.23916767240753
H         5.70644402831786   -3.76265798497917   -1.02217829623847
H         4.02733309597698   -4.23227877177798   -1.33679994390760
C         4.16183364805983   -1.36004849548020   -1.15588100212974
O         3.06203846226355   -0.57380256627945   -0.67035895552122
C         5.40683044736664   -0.49386508886852   -1.30953225720382
H         6.25499724801509   -1.10668564838562   -1.60012245187186
H         5.22972749392637    0.25110516373796   -2.07984966293934
H         5.63145863592543    0.02193375083203   -0.38341449591052
C         3.73924997295965   -1.90188862507005   -2.52821805358173
H         2.84814922038018   -2.51410214982054   -2.41881870824372
H         3.48564593197195   -1.06162307901547   -3.16934597245954
H         4.53517585026166   -2.47409989596496   -2.99362934751934
H        -3.39582724650899   -3.98346013802150   -2.57404961388460
H        -5.19380107595175    1.48943467902777    1.29928481871776
C         0.23589999999998   -1.68139999999997    2.96030000000002
C        -1.01912089297648   -2.06425279153720    3.48452611635720
C         1.33179741220683   -1.85071441644869    3.81452875513022
N        -2.16707635772628   -2.09730445426225    2.70551162450898
C        -1.15180473620376   -2.40910461581689    4.83294989707389
C         1.19175408180091   -2.30417519539222    5.11501634445455
H         2.32290706630717   -1.66497498336449    3.42946856098148
H        -2.01400994833570   -2.43232115326571    1.76984395785018
H        -2.95900463045839   -2.52645919715384    3.15865700163719
C        -0.05593087572699   -2.55854022667541    5.65560827812382
H        -2.13877027354048   -2.62880823304898    5.21674315446391
Cl        2.61049221607608   -2.64316873804664    6.06758165295861
H        -0.16747015755972   -2.91146027617499    6.66853575915146
98
 energy: -143.911860812292 gnorm: 0.033819949604 xtb: 6.4.1 (1a32961)
N        -0.94739473581055   -2.05535878747908   -0.31923045936123
C        -2.21579942381019   -1.61993338620550   -0.45460580797941
C        -3.12304632437515   -2.30497422526397   -1.27047339908232
C        -2.71629539987553   -3.42994649622014   -1.95476088873084
C        -1.39785651864322   -3.85603551968283   -1.81556206977992
C        -0.56267320157644   -3.13519505506071   -0.98997899110460
H         0.46259328999316   -3.43688766871734   -0.83188017061862
H        -1.03749253719011   -4.73160534105509   -2.32821820028181
H        -4.14112420052611   -1.96879525477434   -1.36280319026192
C        -2.57564125927757   -0.44822548898085    0.33702887816609
N        -1.58751473788244    0.11426840077783    1.06112183415266
C        -1.87802419351320    1.15399251264438    1.82938240838214
C        -3.14668465214609    1.68704580992727    1.94813025586024
C        -4.17892371885790    1.11031442618963    1.21781856756185
C        -3.88456341469326    0.03901300285672    0.40133463939988
H        -4.67450428932785   -0.43055891768799   -0.15869932666521
H        -3.32812906627655    2.51986625544528    2.60657917427502
H        -1.04680563452265    1.56906771983691    2.37567875690735
Ir        0.42150000000000   -0.81650000000000    0.91330000000000
H         0.87260000000000   -2.23030000000000    1.54050000000000
B         0.49618847992347    0.44531380047179   -0.75068763872273
O         0.14372673621215   -0.01582533997724   -2.01105282826240
C         0.00393497555579    1.09594861632142   -2.90509257172096
C         0.49301965765594    0.73601264868927   -4.30548640923902
H         1.50574503448776    0.35045038124654   -4.28297938140722
H         0.45303775150606    1.61664936421121   -4.94020134089260
H        -0.15345629824871   -0.02934160056346   -4.72562727796954
C        -1.49764385161247    1.41565977033867   -2.96595557916967
H        -1.70198975662546    2.22373302714803   -3.66052373999137
H        -2.02764352186889    0.52339974522748   -3.29081256514985
H        -1.85396026592102    1.67826619967271   -1.97273935087190
C         0.82335500272710    2.20934830211275   -2.18354401330403
O         0.77309976209869    1.78918323284279   -0.81446038983534
C         2.30089047268832    2.20304616878076   -2.59449616742535
H         2.70488329745769    1.20752492126946   -2.43384495378254
H         2.42784234602612    2.51151343729204   -3.62741008168032
H         2.84419641087609    2.88807903688814   -1.94909706822874
C         0.26581654115275    3.62332025052798   -2.32389314235706
H        -0.73084121744976    3.70071649339100   -1.90408501779479
H         0.91406364408302    4.30895525577545   -1.78594613546532
H         0.24449954029286    3.90751648634212   -3.37189831971424
B         1.57363172754748    0.61397519618994    1.88012679310049
O         2.92905462028446    0.57324978226243    2.12090304921873
C         3.36387785145050    1.88006386307751    2.51781648280411
C         4.53149873696553    1.78287789047606    3.49356046634080
H         4.28585808909089    1.14409146921143    4.33430159853753
H         5.38723393180283    1.35441595186888    2.97998466112211
H         4.79460233170548    2.77315066313458    3.85186285201924
C         3.80675392188023    2.58942158556869    1.23251872145679
H         4.19973735962590    3.58006348752804    1.43472249051271
H         4.57394348344672    1.98693805182411    0.75454912076590
H         2.95779308032433    2.63602847488310    0.55565228015124
C         2.05534746607945    2.49406481255944    3.09867519289312
O         1.04568485270368    1.78371134700001    2.37094670900720
C         1.89536062270482    3.99660429664304    2.89283095521041
H         1.85474544580687    4.23766063632176    1.83697263222322
H         0.96708425538206    4.32166830630775    3.35310740963696
H         2.72400791199685    4.52097438546173    3.35820840593837
C         1.85418186228173    2.14635598759593    4.57963442019594
H         1.96508466933638    1.07340905662029    4.71474461896291
H         2.55939378306784    2.67813333078589    5.20882511133727
H         0.84192961417650    2.41730163759353    4.86782817924986
B         2.27820000000001   -1.33090000000001    0.17410000000002
O         2.90471704743109   -2.54296736591087    0.40765367252162
C         4.25238548050692   -2.48117733780706   -0.07859771530802
C         5.11835858322233   -2.06378008520780    1.11533621984215
H         4.75886868864299   -1.10752870044292    1.48666049056703
H         4.99181404009895   -2.79909689822454    1.90497734191692
H         6.16749798600647   -2.00556498713251    0.84703491686153
C         4.70305056745459   -3.84408749684209   -0.59462130710275
H         4.73895606907575   -4.54035065258965    0.23741223327964
H         5.69455843188436   -3.75854189754098   -1.02776341562507
H         4.01551795227874   -4.23336757885357   -1.33643515453647
C         4.15713172725676   -1.36023117332349   -1.15653203744171
O         3.05194932992420   -0.57936631009556   -0.68015205901608
C         5.40285133874546   -0.49283730582668   -1.30410604820857
H         6.24928494864163   -1.11068447318632   -1.58734684492259
H         5.23040569013691    0.24820385117654   -2.07879785277763
H         5.62325536012176    0.02579877241637   -0.37887223135187
C         3.74865576988340   -1.90519308385785   -2.53316913262095
H         2.85814018703709   -2.51844111981208   -2.42929033272338
H         3.50075252782746   -1.06582022146706   -3.17734020957132
H         4.55168916986419   -2.47560178327418   -2.98693827793953
H        -3.40646809772984   -3.97315551612957   -2.58015728897861
H        -5.18821666135520    1.48415758123007    1.29287192176279
C         0.23589999999996   -1.68139999999996    2.96030000000003
C        -1.01328603649638   -2.07650987503476    3.48772267111840
C         1.33614951857544   -1.81509938552946    3.81661676291427
N        -2.15705014014870   -2.12519959420623    2.70404840114038
C        -1.13817689178463   -2.41139365772851    4.83967346574479
C         1.20380992382038   -2.24774702768859    5.12425446478400
H         2.32358069942741   -1.61408251771307    3.42957990373886
H        -1.99420058320350   -2.44653374165734    1.76462748260255
H        -2.94303427464657   -2.57277553435214    3.15083012144721
C        -0.03901931664733   -2.52352749734436    5.66597042319468
H        -2.12019192803852   -2.64753144539509    5.22712792134273
Cl        2.63277943698977   -2.53066527618594    6.09071222142241
H        -0.14195663424512   -2.86157545194643    6.68511000840693
98
 energy: -143.913544247210 gnorm: 0.034205345524 xtb: 6.4.1 (1a32961)
N        -0.94063769186992   -2.05136787198018   -0.33673123718346
C        -2.20594907931540   -1.60502945390917   -0.47823477641079
C        -3.11579432434787   -2.27949468383351   -1.30142545200456
C        -2.71995648748760   -3.41238948083903   -1.97856494391379
C        -1.40344207055690   -3.84807832472124   -1.83713533973728
C        -0.56260943084089   -3.13064798763976   -1.01271250144260
H         0.46234497261603   -3.43787482767489   -0.86022866670173
H        -1.05027074433401   -4.72832870958528   -2.34705228082070
H        -4.12885134903268   -1.92841724588511   -1.40155528608135
C        -2.56236255210396   -0.43691685375762    0.31589704463782
N        -1.57621429626369    0.11597448791638    1.05380191157875
C        -1.86789340386734    1.15959674817497    1.81856215841804
C        -3.13707049818981    1.69163213796928    1.93655729184345
C        -4.16867851885818    1.11917623957203    1.19878844214661
C        -3.86962472549159    0.05883140776806    0.37034555173765
H        -4.65420530971153   -0.40015959276780   -0.20671459235052
H        -3.32002011208080    2.51794101249144    2.60229864046338
H        -1.03867166818310    1.57869429020525    2.36601866069182
Ir        0.42150000000001   -0.81649999999999    0.91330000000000
H         0.87260000000001   -2.23030000000000    1.54050000000000
B         0.50154781379519    0.45984923037952   -0.73056853254492
O         0.12229090050701   -0.00391524073241   -1.98289303188261
C        -0.00604601417117    1.09956540149234   -2.88198228944037
C         0.49047945760331    0.72558361863467   -4.27724612581400
H         1.49961299891815    0.33006673684696   -4.24435961660876
H         0.46353266885667    1.60386384957162   -4.91670498596443
H        -0.16048073107578   -0.03653856834759   -4.69748212352868
C        -1.50589149341066    1.42979542191782   -2.96116278202913
H        -1.69439070438997    2.23592084057595   -3.66294084460627
H        -2.03791815524627    0.53945514763324   -3.28899950163544
H        -1.87476157671224    1.70071104927953   -1.97425196341022
C         0.81792114951352    2.21629873723079   -2.16692478693603
O         0.78190075772889    1.80073871522579   -0.79872567902716
C         2.29304327839335    2.21353287512167   -2.59066501068204
H         2.70319271319234    1.22123476712551   -2.42330558844634
H         2.40782040990903    2.51168747306935   -3.62827723626181
H         2.83842690293742    2.90890965582009   -1.95738353213587
C         0.25481829639565    3.62875331566807   -2.31158958848585
H        -0.73860129636863    3.70780096115699   -1.88329318919544
H         0.90703044766106    4.32195705643788   -1.78707304532350
H         0.22225697367067    3.90168001263823   -3.36287186769832
B         1.57729040271713    0.61343531636971    1.88337780806956
O         2.93405006652249    0.57753502427680    2.10713567495673
C         3.36691756987494    1.87870531732520    2.52079512873830
C         4.53347682147087    1.77540619150995    3.49904622554304
H         4.29040656392193    1.12605688413251    4.33322082602194
H         5.39472810346395    1.35909246646319    2.98335203262406
H         4.78793164258311    2.76436948189841    3.86930208487416
C         3.81396819419022    2.60357399229104    1.24419797766512
H         4.20045020935871    3.59444411540555    1.45966789532321