      -----------------------------------------------------------      
     |                   =====================                   |     
     |                           x T B                           |     
     |                   =====================                   |     
     |                         S. Grimme                         |     
     |          Mulliken Center for Theoretical Chemistry        |     
     |                    University of Bonn                     |     
      -----------------------------------------------------------      

   * xtb version 6.4.1 (1a32961) compiled by 'knkr256@seskscpg007.prim.scp' on 2021-10-19

   xtb is free software: you can redistribute it and/or modify it under
   the terms of the GNU Lesser General Public License as published by
   the Free Software Foundation, either version 3 of the License, or
   (at your option) any later version.
   
   xtb is distributed in the hope that it will be useful,
   but WITHOUT ANY WARRANTY; without even the implied warranty of
   MERCHANTABILITY or FITNESS FOR A PARTICULAR PURPOSE.  See the
   GNU Lesser General Public License for more details.
   
   Cite this work as:
   * C. Bannwarth, E. Caldeweyher, S. Ehlert, A. Hansen, P. Pracht,
     J. Seibert, S. Spicher, S. Grimme, WIREs Comput. Mol. Sci., 2020, 11,
     e01493. DOI: 10.1002/wcms.1493
   
   for GFN2-xTB:
   * C. Bannwarth, S. Ehlert and S. Grimme., J. Chem. Theory Comput., 2019,
     15, 1652-1671. DOI: 10.1021/acs.jctc.8b01176
   for GFN1-xTB:
   * S. Grimme, C. Bannwarth, P. Shushkov, J. Chem. Theory Comput., 2017,
     13, 1989-2009. DOI: 10.1021/acs.jctc.7b00118
   for GFN0-xTB:
   * P. Pracht, E. Caldeweyher, S. Ehlert, S. Grimme, ChemRxiv, 2019, preprint.
     DOI: 10.26434/chemrxiv.8326202.v1
   for GFN-FF:
   * S. Spicher and S. Grimme, Angew. Chem. Int. Ed., 2020, 59, 15665-15673.
     DOI: 10.1002/anie.202004239
   
   for ALPB and GBSA implicit solvation:
   * S. Ehlert, M. Stahn, S. Spicher, S. Grimme, J. Chem. Theory Comput.,
     2021, 17, 4250-4261. DOI: 10.1021/acs.jctc.1c00471
   
   for DFT-D4:
   * E. Caldeweyher, C. Bannwarth and S. Grimme, J. Chem. Phys., 2017,
     147, 034112. DOI: 10.1063/1.4993215
   * E. Caldeweyher, S. Ehlert, A. Hansen, H. Neugebauer, S. Spicher,
     C. Bannwarth and S. Grimme, J. Chem. Phys., 2019, 150, 154122.
     DOI: 10.1063/1.5090222
   * E. Caldeweyher, J.-M. Mewes, S. Ehlert and S. Grimme, Phys. Chem. Chem. Phys.
     2020, 22, 8499-8512. DOI: 10.1039/D0CP00502A
   
   for sTDA-xTB:
   * S. Grimme and C. Bannwarth, J. Chem. Phys., 2016, 145, 054103.
     DOI: 10.1063/1.4959605
   
   in the mass-spec context:
   * V. Asgeirsson, C. Bauer and S. Grimme, Chem. Sci., 2017, 8, 4879.
     DOI: 10.1039/c7sc00601b
   * J. Koopman and S. Grimme, ACS Omega 2019, 4, 12, 15120-15133.
     DOI: 10.1021/acsomega.9b02011
   
   for metadynamics refer to:
   * S. Grimme, J. Chem. Theory Comput., 2019, 155, 2847-2862
     DOI: 10.1021/acs.jctc.9b00143
   
   for SPH calculations refer to:
   * S. Spicher and S. Grimme, J. Chem. Theory Comput., 2021, 17, 1701-1714
     DOI: 10.1021/acs.jctc.0c01306
   
   with help from (in alphabetical order)
   P. Atkinson, C. Bannwarth, F. Bohle, G. Brandenburg, E. Caldeweyher
   M. Checinski, S. Dohm, S. Ehlert, S. Ehrlich, I. Gerasimov, J. Koopman
   C. Lavigne, S. Lehtola, F. März, M. Müller, F. Musil, H. Neugebauer
   J. Pisarek, C. Plett, P. Pracht, J. Seibert, P. Shushkov, S. Spicher
   M. Stahn, M. Steiner, T. Strunk, J. Stückrath, T. Rose, and J. Unsleber
   
 * started run on 2022/01/14 at 13:43:55.143     

           -------------------------------------------------
          |                Calculation Setup                |
           -------------------------------------------------

          program call               : xtb xtbopt.xyz --sp --alpb thf -P 6
          hostname                   : seskscpg007.prim.scp
          coordinate file            : xtbopt.xyz
          omp threads                :                     6
          number of atoms            :                    96
          number of electrons        :                   252
          charge                     :                     0
          spin                       :                   0.0
          first test random number   :      0.14819146580821

   ID    Z sym.   atoms
    1    7 N      1, 11
    2    6 C      2-6, 10, 12-15, 23, 24, 28, 32, 34, 38, 44, 45, 49, 53, 55,
                  59, 65, 66, 70, 74, 76, 80, 86-88, 91, 93
    3    1 H      7-9, 16-18, 20, 25-27, 29-31, 35-37, 39-41, 46-48, 50-52,
                  56-58, 60-62, 67-69, 71-73, 77-79, 81-85, 90, 92, 94-96
    4   77 Ir     19
    5    5 B      21, 42, 63
    6    8 O      22, 33, 43, 54, 64, 75, 89

molecular fragmentation (1/2 indicates fragments):
111111111111111111111111111111111111111111111111111111111111111111111111
111111111111122222222222
# atoms in fragment 1/2:    85    11
 fragment masses (1/2) :      730.32       81.09
CMA distance (Bohr)    :   9.042
constraining FC (au)   :  0.0500

           -------------------------------------------------
          |                 G F N 2 - x T B                 |
           -------------------------------------------------

        Reference                      10.1021/acs.jctc.8b01176
      * Hamiltonian:
        H0-scaling (s, p, d)           1.850000    2.230000    2.230000
        zeta-weighting                 0.500000
      * Dispersion:
        s8                             2.700000
        a1                             0.520000
        a2                             5.000000
        s9                             5.000000
      * Repulsion:
        kExp                           1.500000    1.000000
        rExp                           1.000000
      * Coulomb:
        alpha                          2.000000
        third order                    shell-resolved
        anisotropic                    true
        a3                             3.000000
        a5                             4.000000
        cn-shift                       1.200000
        cn-exp                         4.000000
        max-rad                        5.000000

      * Solvation model:               ALPB
        Solvent                        thf
        Parameter file                 internal GFN2-xTB/ALPB
        Dielectric constant                7.6000E+00
        Reference state                gsolv [1 M gas/solution]
        Free energy shift                  5.3248E-03 Eh       3.3414E+00 kcal/mol
        Temperature                        2.9815E+02 K
        Density                            8.8300E-01 kg/L
        Solvent mass                       7.2106E+01 g/mol
        Interaction kernel             P16
        Born radius scaling (c1)           1.7311E+00
        Born radii integrator          GBOBC
        Born offset                        0.0000E+00 a0       0.0000E+00 AA
        H-bond correction              true
        Ion screening                  false
        Surface tension                    1.0000E-05 Eh       1.5569E+01 dyn/cm
        Grid points                               230 per atom
q/qsh data taken from xtbrestart
CAMM data taken from xtbrestart

          ...................................................
          :                      SETUP                      :
          :.................................................:
          :  # basis functions                 240          :
          :  # atomic orbitals                 239          :
          :  # shells                          143          :
          :  # electrons                       252          :
          :  max. iterations                   250          :
          :  Hamiltonian                  GFN2-xTB          :
          :  restarted?                       true          :
          :  GBSA solvation                   true          :
          :  PC potential                    false          :
          :  electronic temp.          300.0000000     K    :
          :  accuracy                    1.0000000          :
          :  -> integral cutoff          0.2500000E+02      :
          :  -> integral neglect         0.1000000E-07      :
          :  -> SCF convergence          0.1000000E-05 Eh   :
          :  -> wf. convergence          0.1000000E-03 e    :
          :  Broyden damping             0.4000000          :
          ...................................................

 iter      E             dE          RMSdq      gap      omega  full diag
   1   -140.0921360 -0.140092E+03  0.396E-05    0.88       0.0  T
   2   -140.0921360  0.713015E-09  0.948E-05    0.88     107.6  T
   3   -140.0921360 -0.823377E-09  0.143E-05    0.88     714.8  T

   *** convergence criteria satisfied after 3 iterations ***

         #    Occupation            Energy/Eh            Energy/eV
      -------------------------------------------------------------
         1        2.0000           -0.7159276             -19.4814
       ...           ...                  ...                  ...
       120        2.0000           -0.3632508              -9.8846
       121        2.0000           -0.3467254              -9.4349
       122        2.0000           -0.3293528              -8.9621
       123        2.0000           -0.3202912              -8.7156
       124        2.0000           -0.3194657              -8.6931
       125        2.0000           -0.3098592              -8.4317
       126        2.0000           -0.3074824              -8.3670 (HOMO)
       127                         -0.2750048              -7.4833 (LUMO)
       128                         -0.2468943              -6.7183
       129                         -0.2445216              -6.6538
       130                         -0.2037923              -5.5455
       131                         -0.1975768              -5.3763
       ...                                ...                  ...
       239                          3.7419973             101.8249
      -------------------------------------------------------------
                  HL-Gap            0.0324776 Eh            0.8838 eV
             Fermi-level           -0.2912062 Eh           -7.9241 eV

 SCC (total)                   0 d,  0 h,  0 min,  0.079 sec
 SCC setup                      ...        0 min,  0.003 sec (  3.810%)
 Dispersion                     ...        0 min,  0.002 sec (  2.782%)
 classical contributions        ...        0 min,  0.000 sec (  0.183%)
 integral evaluation            ...        0 min,  0.009 sec ( 11.897%)
 iterations                     ...        0 min,  0.033 sec ( 42.396%)
 molecular gradient             ...        0 min,  0.030 sec ( 38.195%)
 printout                       ...        0 min,  0.001 sec (  0.639%)

         :::::::::::::::::::::::::::::::::::::::::::::::::::::
         ::                     SUMMARY                     ::
         :::::::::::::::::::::::::::::::::::::::::::::::::::::
         :: total energy            -138.362785017113 Eh    ::
         :: total w/o Gsasa/hb      -138.324459526624 Eh    ::
         :: gradient norm              0.037151531498 Eh/a0 ::
         :: HOMO-LUMO gap              0.883760608017 eV    ::
         ::.................................................::
         :: SCC energy              -140.092136040488 Eh    ::
         :: -> isotropic ES            0.246544653313 Eh    ::
         :: -> anisotropic ES          0.013251257908 Eh    ::
         :: -> anisotropic XC          0.041080654829 Eh    ::
         :: -> dispersion             -0.129631006094 Eh    ::
         :: -> Gsolv                  -0.048785222070 Eh    ::
         ::    -> Gelec               -0.010459731581 Eh    ::
         ::    -> Gsasa               -0.040956627551 Eh    ::
         ::    -> Ghb                 -0.002693678382 Eh    ::
         ::    -> Gshift               0.005324815444 Eh    ::
         :: repulsion energy           1.721785761435 Eh    ::
         :: add. restraining           0.000000000000 Eh    ::
         :: total charge               0.000000000003 e     ::
         :::::::::::::::::::::::::::::::::::::::::::::::::::::

           -------------------------------------------------
          |                Property Printout                |
           -------------------------------------------------

    * Orbital Energies and Occupations

         #    Occupation            Energy/Eh            Energy/eV
      -------------------------------------------------------------
         1        2.0000           -0.7159276             -19.4814
       ...           ...                  ...                  ...
       114        2.0000           -0.4011141             -10.9149
       115        2.0000           -0.3904082             -10.6235
       116        2.0000           -0.3870000             -10.5308
       117        2.0000           -0.3852132             -10.4822
       118        2.0000           -0.3815431             -10.3823
       119        2.0000           -0.3807600             -10.3610
       120        2.0000           -0.3632508              -9.8846
       121        2.0000           -0.3467254              -9.4349
       122        2.0000           -0.3293528              -8.9621
       123        2.0000           -0.3202912              -8.7156
       124        2.0000           -0.3194657              -8.6931
       125        2.0000           -0.3098592              -8.4317
       126        2.0000           -0.3074824              -8.3670 (HOMO)
       127                         -0.2750048              -7.4833 (LUMO)
       128                         -0.2468943              -6.7183
       129                         -0.2445216              -6.6538
       130                         -0.2037923              -5.5455
       131                         -0.1975768              -5.3763
       132                         -0.1826499              -4.9702
       133                         -0.1502574              -4.0887
       134                         -0.1316087              -3.5813
       135                         -0.1253508              -3.4110
       136                         -0.1220132              -3.3201
       137                         -0.1105461              -3.0081
       ...                                ...                  ...
       239                          3.7419973             101.8249
      -------------------------------------------------------------
                  HL-Gap            0.0324776 Eh            0.8838 eV
             Fermi-level           -0.2912062 Eh           -7.9241 eV

     #   Z          covCN         q      C6AA      α(0)
     1   7 N        2.562    -0.121    23.664     7.225
     2   6 C        2.955     0.075    26.330     8.416
     3   6 C        2.918    -0.043    29.074     8.842
     4   6 C        2.923    -0.023    28.584     8.768
     5   6 C        2.915    -0.044    29.097     8.845
     6   6 C        2.892     0.047    26.936     8.509
     7   1 H        0.926     0.053     2.281     2.362
     8   1 H        0.926     0.055     2.253     2.347
     9   1 H        0.926     0.046     2.368     2.406
    10   6 C        2.954     0.070    26.424     8.431
    11   7 N        2.568    -0.126    23.764     7.240
    12   6 C        2.890     0.041    27.072     8.530
    13   6 C        2.915    -0.045    29.128     8.850
    14   6 C        2.922    -0.025    28.639     8.776
    15   6 C        2.918    -0.046    29.136     8.851
    16   1 H        0.926     0.045     2.379     2.412
    17   1 H        0.926     0.051     2.306     2.375
    18   1 H        0.926     0.077     2.009     2.217
    19  77 Ir       5.967    -0.170   389.883    36.514
    20   1 H        0.977     0.103     1.751     2.068
    21   5 B        2.632     0.404    16.003     6.757
    22   8 O        1.638    -0.409    21.027     6.190
    23   6 C        3.836     0.130    18.450     6.111
    24   6 C        3.755    -0.121    22.875     6.820
    25   1 H        0.925     0.053     2.283     2.363
    26   1 H        0.925     0.045     2.389     2.417
    27   1 H        0.925     0.051     2.308     2.376
    28   6 C        3.754    -0.109    22.640     6.785
    29   1 H        0.925     0.047     2.356     2.400
    30   1 H        0.925     0.041     2.429     2.437
    31   1 H        0.925     0.028     2.622     2.532
    32   6 C        3.841     0.131    18.438     6.108
    33   8 O        1.637    -0.403    20.924     6.175
    34   6 C        3.755    -0.120    22.865     6.818
    35   1 H        0.925     0.051     2.304     2.374
    36   1 H        0.925     0.045     2.378     2.411
    37   1 H        0.925     0.049     2.333     2.388
    38   6 C        3.754    -0.120    22.853     6.817
    39   1 H        0.925     0.047     2.359     2.402
    40   1 H        0.925     0.053     2.283     2.363
    41   1 H        0.925     0.045     2.385     2.415
    42   5 B        2.625     0.404    16.037     6.770
    43   8 O        1.637    -0.383    20.534     6.117
    44   6 C        3.838     0.128    18.474     6.115
    45   6 C        3.754    -0.126    22.975     6.835
    46   1 H        0.925     0.055     2.255     2.348
    47   1 H        0.925     0.056     2.248     2.345
    48   1 H        0.925     0.049     2.326     2.385
    49   6 C        3.755    -0.121    22.881     6.821
    50   1 H        0.925     0.048     2.339     2.392
    51   1 H        0.925     0.046     2.374     2.409
    52   1 H        0.925     0.051     2.302     2.373
    53   6 C        3.833     0.128    18.489     6.118
    54   8 O        1.637    -0.382    20.510     6.113
    55   6 C        3.755    -0.124    22.944     6.830
    56   1 H        0.925     0.054     2.271     2.357
    57   1 H        0.925     0.054     2.267     2.354
    58   1 H        0.925     0.048     2.345     2.395
    59   6 C        3.755    -0.124    22.933     6.828
    60   1 H        0.925     0.045     2.384     2.414
    61   1 H        0.925     0.053     2.288     2.365
    62   1 H        0.925     0.050     2.316     2.380
    63   5 B        2.624     0.402    16.061     6.776
    64   8 O        1.637    -0.378    20.441     6.103
    65   6 C        3.832     0.125    18.530     6.125
    66   6 C        3.755    -0.131    23.067     6.848
    67   1 H        0.925     0.059     2.212     2.326
    68   1 H        0.925     0.054     2.268     2.355
    69   1 H        0.925     0.050     2.321     2.382
    70   6 C        3.755    -0.129    23.037     6.844
    71   1 H        0.925     0.061     2.191     2.314
    72   1 H        0.925     0.050     2.316     2.380
    73   1 H        0.925     0.052     2.298     2.370
    74   6 C        3.828     0.127    18.498     6.120
    75   8 O        1.637    -0.381    20.489     6.110
    76   6 C        3.755    -0.124    22.932     6.828
    77   1 H        0.925     0.051     2.313     2.378
    78   1 H        0.925     0.053     2.278     2.360
    79   1 H        0.925     0.055     2.262     2.352
    80   6 C        3.755    -0.121    22.885     6.821
    81   1 H        0.925     0.040     2.447     2.446
    82   1 H        0.925     0.048     2.343     2.394
    83   1 H        0.925     0.054     2.266     2.354
    84   1 H        0.926     0.052     2.292     2.367
    85   1 H        0.926     0.049     2.332     2.388
    86   6 C        2.903    -0.057    29.411     8.892
    87   6 C        3.056     0.056    26.696     8.473
    88   6 C        3.029    -0.083    30.046     8.991
    89   8 O        1.726    -0.235    17.898     5.712
    90   1 H        0.926     0.024     2.679     2.560
    91   6 C        3.068     0.109    25.536     8.286
    92   1 H        0.926     0.035     2.510     2.477
    93   6 C        3.753    -0.130    23.050     6.846
    94   1 H        0.925     0.067     2.119     2.276
    95   1 H        0.925     0.066     2.126     2.280
    96   1 H        0.925     0.062     2.171     2.304

 Mol. C6AA /au·bohr⁶  :      96134.929250
 Mol. C8AA /au·bohr⁸  :    2561324.574228
 Mol. α(0) /au        :        479.348259


Wiberg/Mayer (AO) data.
largest (>0.10) Wiberg bond orders for each atom

 ---------------------------------------------------------------------------
     #   Z sym  total        # sym  WBO       # sym  WBO       # sym  WBO
 ---------------------------------------------------------------------------
     1   7 N    3.408 --     6 C    1.385     2 C    1.307    19 Ir   0.456
     2   6 C    3.979 --     3 C    1.347     1 N    1.307    10 C    1.095
     3   6 C    3.988 --     4 C    1.486     2 C    1.347     9 H    0.962
                             6 C    0.106
     4   6 C    3.985 --     3 C    1.486     5 C    1.378    84 H    0.969
     5   6 C    3.979 --     6 C    1.464     4 C    1.378     8 H    0.968
     6   6 C    3.978 --     5 C    1.464     1 N    1.385     7 H    0.957
                             3 C    0.106
     7   1 H    0.997 --     6 C    0.957
     8   1 H    0.996 --     5 C    0.968
     9   1 H    0.997 --     3 C    0.962
    10   6 C    3.979 --    15 C    1.352    11 N    1.300     2 C    1.095
    11   7 N    3.412 --    12 C    1.383    10 C    1.300    19 Ir   0.446
    12   6 C    3.973 --    13 C    1.460    11 N    1.383    18 H    0.947
                            15 C    0.105
    13   6 C    3.982 --    12 C    1.460    14 C    1.382    17 H    0.969
    14   6 C    3.982 --    15 C    1.480    13 C    1.382    85 H    0.969
    15   6 C    3.989 --    14 C    1.480    10 C    1.352    16 H    0.962
                            12 C    0.105
    16   1 H    0.997 --    15 C    0.962
    17   1 H    0.997 --    13 C    0.969
    18   1 H    0.994 --    12 C    0.947
    19  77 Ir   5.224 --    63 B    0.868    42 B    0.866    21 B    0.731
                            86 C    0.588    20 H    0.552     1 N    0.456
                            11 N    0.446
    20   1 H    0.987 --    19 Ir   0.552    86 C    0.337
    21   5 B    3.275 --    33 O    1.110    22 O    1.091    19 Ir   0.731
    22   8 O    2.191 --    21 B    1.091    23 C    0.943
    23   6 C    3.943 --    24 C    0.996    28 C    0.990    22 O    0.943
                            32 C    0.941
    24   6 C    3.994 --    23 C    0.996    26 H    0.984    27 H    0.983
                            25 H    0.983
    25   1 H    0.997 --    24 C    0.983
    26   1 H    0.997 --    24 C    0.984
    27   1 H    0.997 --    24 C    0.983
    28   6 C    3.997 --    23 C    0.990    31 H    0.985    29 H    0.984
                            30 H    0.984
    29   1 H    0.997 --    28 C    0.984
    30   1 H    0.998 --    28 C    0.984
    31   1 H    0.999 --    28 C    0.985
    32   6 C    3.940 --    38 C    0.997    34 C    0.991    23 C    0.941
                            33 O    0.940
    33   8 O    2.200 --    21 B    1.110    32 C    0.940
    34   6 C    3.994 --    32 C    0.991    36 H    0.984    37 H    0.982
                            35 H    0.981
    35   1 H    0.997 --    34 C    0.981
    36   1 H    0.997 --    34 C    0.984
    37   1 H    0.997 --    34 C    0.982
    38   6 C    3.994 --    32 C    0.997    41 H    0.984    39 H    0.983
                            40 H    0.983
    39   1 H    0.998 --    38 C    0.983
    40   1 H    0.997 --    38 C    0.983
    41   1 H    0.997 --    38 C    0.984
    42   5 B    3.333 --    43 O    1.114    54 O    1.108    19 Ir   0.866
    43   8 O    2.224 --    42 B    1.114    44 C    0.937
    44   6 C    3.937 --    45 C    0.997    49 C    0.991    53 C    0.939
                            43 O    0.937
    45   6 C    3.993 --    44 C    0.997    48 H    0.983    46 H    0.982
                            47 H    0.982
    46   1 H    0.997 --    45 C    0.982
    47   1 H    0.997 --    45 C    0.982
    48   1 H    0.996 --    45 C    0.983
    49   6 C    3.994 --    44 C    0.991    50 H    0.984    51 H    0.982
                            52 H    0.980
    50   1 H    0.997 --    49 C    0.984
    51   1 H    0.998 --    49 C    0.982
    52   1 H    0.997 --    49 C    0.980
    53   6 C    3.938 --    55 C    0.996    59 C    0.991    44 C    0.939
                            54 O    0.935
    54   8 O    2.227 --    42 B    1.108    53 C    0.935
    55   6 C    3.993 --    53 C    0.996    58 H    0.983    57 H    0.983
                            56 H    0.982
    56   1 H    0.997 --    55 C    0.982
    57   1 H    0.997 --    55 C    0.983
    58   1 H    0.996 --    55 C    0.983
    59   6 C    3.994 --    53 C    0.991    61 H    0.983    62 H    0.983
                            60 H    0.982
    60   1 H    0.998 --    59 C    0.982
    61   1 H    0.996 --    59 C    0.983
    62   1 H    0.997 --    59 C    0.983
    63   5 B    3.360 --    75 O    1.117    64 O    1.108    19 Ir   0.868
    64   8 O    2.227 --    63 B    1.108    65 C    0.938
    65   6 C    3.938 --    70 C    0.996    66 C    0.991    64 O    0.938
                            74 C    0.938
    66   6 C    3.992 --    65 C    0.991    69 H    0.983    68 H    0.983
                            67 H    0.979
    67   1 H    0.997 --    66 C    0.979
    68   1 H    0.997 --    66 C    0.983
    69   1 H    0.997 --    66 C    0.983
    70   6 C    3.992 --    65 C    0.996    72 H    0.984    73 H    0.982
                            71 H    0.982
    71   1 H    0.996 --    70 C    0.982
    72   1 H    0.996 --    70 C    0.984
    73   1 H    0.997 --    70 C    0.982
    74   6 C    3.935 --    76 C    0.996    80 C    0.991    65 C    0.938
                            75 O    0.936
    75   8 O    2.233 --    63 B    1.117    74 C    0.936
    76   6 C    3.993 --    74 C    0.996    77 H    0.983    78 H    0.982
                            79 H    0.981
    77   1 H    0.996 --    76 C    0.983
    78   1 H    0.997 --    76 C    0.982
    79   1 H    0.997 --    76 C    0.981
    80   6 C    3.995 --    74 C    0.991    81 H    0.984    83 H    0.983
                            82 H    0.983
    81   1 H    0.998 --    80 C    0.984
    82   1 H    0.997 --    80 C    0.983
    83   1 H    0.996 --    80 C    0.983
    84   1 H    0.996 --     4 C    0.969
    85   1 H    0.997 --    14 C    0.969
    86   6 C    3.947 --    87 C    1.577    88 C    1.232    19 Ir   0.588
                            20 H    0.337
    87   6 C    3.893 --    86 C    1.577    89 O    1.085    90 H    0.966
                            91 C    0.137
    88   6 C    3.979 --    91 C    1.600    86 C    1.232    92 H    0.970
    89   8 O    2.382 --    91 C    1.096    87 C    1.085
    90   1 H    0.999 --    87 C    0.966
    91   6 C    3.905 --    88 C    1.600    89 O    1.096    93 C    1.027
                            87 C    0.137
    92   1 H    0.998 --    88 C    0.970
    93   6 C    3.992 --    91 C    1.027    96 H    0.983    94 H    0.970
                            95 H    0.969
    94   1 H    0.995 --    93 C    0.970
    95   1 H    0.995 --    93 C    0.969
    96   1 H    0.996 --    93 C    0.983
 ---------------------------------------------------------------------------

Topologies differ in total number of bonds
Writing topology from bond orders to xtbtopo.mol

molecular dipole:
                 x           y           z       tot (Debye)
 q only:        0.542       0.370      -0.604
   full:       -0.727       0.617      -1.122       3.743
molecular quadrupole (traceless):
                xx          xy          yy          xz          yz          zz
 q only:        9.439      -1.202      -5.576       9.412      11.828      -3.863
  q+dip:       12.546       0.611      -6.185       7.851      16.191      -6.361
   full:       10.186       1.763      -4.995       6.378      13.365      -5.191


           -------------------------------------------------
          | TOTAL ENERGY             -138.362785017113 Eh   |
          | GRADIENT NORM               0.037151531498 Eh/α |
          | HOMO-LUMO GAP               0.883760608017 eV   |
           -------------------------------------------------

------------------------------------------------------------------------
 * finished run on 2022/01/14 at 13:43:55.248     
------------------------------------------------------------------------
 total:
 * wall-time:     0 d,  0 h,  0 min,  0.105 sec
 *  cpu-time:     0 d,  0 h,  0 min,  0.610 sec
 * ratio c/w:     5.813 speedup
 SCF:
 * wall-time:     0 d,  0 h,  0 min,  0.080 sec
 *  cpu-time:     0 d,  0 h,  0 min,  0.477 sec
 * ratio c/w:     5.956 speedup

