96
 energy: -138.362785016989 gnorm: 0.000205471918 xtb: 6.4.1 (1a32961)
N        -0.90257074925605   -2.02684641363842   -0.36875863055942
C        -2.15697886039598   -1.56342108102214   -0.53195207626272
C        -3.03307185650141   -2.16512497072810   -1.44514737297635
C        -2.61280884827461   -3.24304791741785   -2.19210177081043
C        -1.31182420773914   -3.70957476969095   -2.01427618535904
C        -0.50712396994414   -3.06825401164776   -1.09690658118120
H         0.50735483987626   -3.39795192759577   -0.92200741639952
H        -0.94067091957940   -4.55208603112943   -2.57489819241457
H        -4.03654314870626   -1.79268045970648   -1.56961219813075
C        -2.53011872553510   -0.41888349690864    0.28728091231645
N        -1.58601556642402    0.04860950076928    1.13328308492728
C        -1.88560538840456    1.08739678825452    1.91084539315107
C        -3.11014358884785    1.72251391847852    1.89729553096493
C        -4.08912450049620    1.26203030223002    1.01978915360889
C        -3.79106721499469    0.18662870999624    0.21176398363724
H        -4.53433173249282   -0.18139063467967   -0.47590161831082
H        -3.29867251149402    2.55569346620693    2.55486316606432
H        -1.09033765670134    1.41854338322433    2.56069580299272
Ir        0.42150000000001   -0.81650000000007    0.91329999999998
H         0.87259999999999   -2.23029999999998    1.54050000000000
B         0.43551310084183    0.59858926644230   -0.61474308751706
O        -0.16541746298174    0.29591690927184   -1.82358518888953
C        -0.24864731526993    1.46992700911831   -2.63751846390801
C         0.05783228604943    1.11056433196305   -4.08931170947732
H         0.99150948557620    0.56219321675982   -4.15816536906203
H         0.11587270546951    2.01149516351570   -4.69465804591417
H        -0.73753516223256    0.47775874713446   -4.47587998027003
C        -1.69256946739692    1.98245238531914   -2.53595941740690
H        -1.84770588619842    2.85023528302140   -3.17008285461982
H        -2.36553859792593    1.18693634135052   -2.85036992155662
H        -1.92837634056624    2.23377873822339   -1.50363618375703
C         0.78470193163568    2.42868567212220   -1.95987040362584
O         0.86663091983478    1.90555352913894   -0.62709115068481
C         2.18726968085233    2.30351259020075   -2.56760304516073
H         2.50531236897408    1.26517895704398   -2.51292003985615
H         2.21030541840331    2.65945381484589   -3.59358177783526
H         2.87909323359997    2.89397800098477   -1.97139056392269
C         0.37315138888507    3.89915534931270   -1.92185613840246
H        -0.53007845518402    4.04162392393067   -1.33680277355426
H         1.16919692746658    4.47965299161057   -1.46183526179999
H         0.21200759359755    4.26556664447103   -2.93258988781000
B         1.57526007891737    0.61986368293368    1.90195493717034
O         2.94722142688419    0.70425913404891    1.96648852542922
C         3.33506298690300    1.97861780143213    2.49908528899317
C         4.55688648981523    1.81647543092523    3.40152639314103
H         4.38775867025490    1.05360536884173    4.15404930414233
H         5.40863840347918    1.51348214262405    2.79799092867745
H         4.79009808269103    2.76083618693017    3.88603602004236
C         3.69440966331026    2.86010210024351    1.29679126678124
H         3.99311399063459    3.85738975054637    1.60608775460310
H         4.51683571407186    2.39429386686627    0.75867374131168
H         2.84010506954600    2.90475098411515    0.62595629202087
C         2.03345747207500    2.45488725028595    3.22770456592064
O         1.01433448765766    1.67319714702560    2.59106975710758
C         1.71141257249012    3.93893357357974    3.06244526277472
H         1.52564869227150    4.17527210997129    2.02013356543475
H         0.81488449474523    4.17535976661190    3.63035729598395
H         2.53288038021723    4.54413847169172    3.43641331734152
C         2.01368096510884    2.09448753451748    4.71883238090895
H         2.19247974032845    1.03017154218031    4.84534422869492
H         2.75397261822389    2.66645839049255    5.26968525544205
H         1.02669066958857    2.31704006860322    5.11742379549141
B         2.27820000000064   -1.33090000000011    0.17409999999997
O         3.06676447520115   -2.35778361342767    0.65400911976129
C         4.36572348754377   -2.31363288365900    0.05067621502333
C         5.29921180433455   -1.65955675790957    1.07532393229151
H         4.88835014833226   -0.69414089483215    1.35734765622065
H         5.32565583169483   -2.28470496671265    1.96427305249850
H         6.30723596561965   -1.55236637514869    0.68687016446166
C         4.84403676267203   -3.73649319306997   -0.23712172379264
H         4.95332339711315   -4.26544923832375    0.70593389885719
H         5.80571455394077   -3.71254476100858   -0.74193427410857
H         4.12853163298131   -4.27928997659762   -0.84562437319318
C         4.12707516257458   -1.42133024046009   -1.21713901792422
O         2.90100563926800   -0.74334325227414   -0.90418039550977
C         5.21828079514779   -0.38704367212271   -1.48785753611625
H         6.17816520004932   -0.87748288079587   -1.62410333329467
H         4.97221804819631    0.16221057000910   -2.39319879884780
H         5.27865611832295    0.32082028818934   -0.66866520980033
C         3.88088077089630   -2.23726976076157   -2.49370377012796
H         3.07874239192776   -2.95236409190204   -2.33307438633901
H         3.57003893056961   -1.55918276592583   -3.28500413009419
H         4.78225066449367   -2.75587470282395   -2.80604521871064
H        -3.27800412300143   -3.71473236295019   -2.89933253209003
H        -5.05862093295015    1.73450974230245    0.97214377395595
C         0.23589999999989   -1.68140000000055    2.96030000000019
C        -0.97285919208433   -1.98315293625187    3.51192991559661
C         1.13486855297583   -1.62094612921426    4.06926915005276
O        -0.89070831771404   -2.07180929355548    4.86760169161861
H        -1.94423279226333   -2.15308265431654    3.08996364713728
C         0.40765913790418   -1.84952373625711    5.19611959640830
H         2.18653804960200   -1.43222944483283    4.00412904543943
C         0.78745498542476   -1.90418917840684    6.63454691869336
H         0.52789875025496   -2.87392924923537    7.05731137250941
H         0.25749854948042   -1.13825632585788    7.19947444198963
H         1.85665059574096   -1.74545927506355    6.73181707827440
