103
 energy: -150.403216414698 gnorm: 0.001215276921 xtb: 6.4.0 (f63f532)
N        -0.96509999999998   -2.11530000000000   -0.24090000000001
C        -2.24700000000010   -1.69839999999998   -0.36219999999995
C        -3.14040000000004   -2.36819999999970   -1.21199999999969
C        -2.70220000000000   -3.47560000000006   -1.93050000000010
C        -1.37780000000002   -3.89880000000003   -1.78759999999919
C        -0.54289999999980   -3.18670000000007   -0.93509999999950
H         0.49809999999997   -3.45630000000001   -0.78940000000000
H        -0.99569999999999   -4.76029999999988   -2.32770000000003
H        -4.16500000000000   -2.02889999999992   -1.31829999999999
C        -2.62129999999995   -0.50949999999993    0.44100000000029
N        -1.62599999999989    0.07329999999997    1.16019999999994
C        -1.89679999999997    1.15239999999991    1.91690000000007
C        -3.17230000000005    1.70330000000005    1.99650000000006
C        -4.20509999999998    1.11739999999996    1.26270000000008
C        -3.92610000000001    0.00250000000003    0.47819999999997
H        -4.71959999999999   -0.46420000000002   -0.09520000000000
H        -3.34630000000001    2.57510000000005    2.62070000000002
H        -1.04449999999997    1.57419999999997    2.43690000000001
Ir        0.42150000000000   -0.81650000000000    0.91330000000000
H         0.87260000000000   -2.23030000000000    1.54049999999999
B         0.50670000000002    0.41559999999997   -0.81540000000004
O         0.19500000000004   -0.04700000000010   -2.09150000000000
C         0.00650000000005    1.10039999999975   -2.95430000000004
C         0.49019999999988    0.74740000000006   -4.35780000000011
H         1.51609999999987    0.37380000000001   -4.33700000000000
H         0.44730000000001    1.62240000000004   -5.01670000000002
H        -0.14739999999994   -0.03390000000001   -4.78430000000000
C        -1.50120000000003    1.39559999999995   -2.96669999999994
H        -1.75369999999999    2.21459999999999   -3.64849999999995
H        -2.03200000000004    0.49449999999980   -3.28930000000002
H        -1.85169999999996    1.65209999999999   -1.96219999999998
C         0.84229999999999    2.20670000000010   -2.22040000000012
O         0.75200000000001    1.78259999999995   -0.83689999999991
C         2.32930000000012    2.18619999999997   -2.59900000000022
H         2.74130000000002    1.18500000000003   -2.45749999999999
H         2.48870000000001    2.51300000000003   -3.63179999999996
H         2.87200000000000    2.86270000000000   -1.93199999999997
C         0.28439999999991    3.62289999999998   -2.33660000000000
H        -0.72649999999989    3.69040000000001   -1.92910000000000
H         0.92130000000004    4.31479999999997   -1.77609999999996
H         0.26430000000003    3.94810000000002   -3.38319999999996
B         1.56300000000010    0.60960000000000    1.84839999999999
O         2.92780000000005    0.55229999999991    2.15020000000001
C         3.36330000000005    1.88660000000011    2.50259999999877
C         4.53140000000011    1.78589999999987    3.47739999999994
H         4.27909999999998    1.16090000000018    4.33690000000002
H         5.39390000000000    1.33789999999996    2.97340000000007
H         4.82389999999998    2.77870000000005    3.83820000000009
C         3.79700000000007    2.56849999999987    1.19669999999972
H         4.20020000000002    3.57090000000002    1.37680000000002
H         4.56740000000002    1.95560000000003    0.72110000000008
H         2.95240000000006    2.63259999999999    0.50540000000008
C         2.05039999999998    2.50090000000011    3.09319999999987
O         1.03750000000002    1.81619999999994    2.31910000000005
C         1.89099999999996    4.00449999999988    2.88649999999998
H         1.87290000000001    4.25439999999996    1.82410000000006
H         0.94939999999999    4.34260000000000    3.33170000000002
H         2.71079999999997    4.55149999999998    3.36630000000011
C         1.82470000000008    2.13200000000106    4.56520000000024
H         1.92609999999998    1.05329999999987    4.71319999999997
H         2.52609999999998    2.65280000000008    5.22540000000008
H         0.80629999999996    2.41579999999985    4.84900000000006
B         2.27820000000000   -1.33090000000001    0.17409999999999
O         2.89459999999998   -2.57740000000003    0.38449999999996
C         4.26929999999998   -2.48200000000003   -0.07210000000003
C         5.10899999999998   -2.05379999999998    1.14009999999995
H         4.76349999999999   -1.08739999999998    1.51750000000002
H         4.98049999999996   -2.79470000000006    1.93589999999997
H         6.17419999999998   -1.99290000000005    0.89299999999999
C         4.71949999999996   -3.84660000000001   -0.58470000000004
H         4.75279999999996   -4.56130000000004    0.24419999999997
H         5.72329999999998   -3.78370000000003   -1.02010000000004
H         4.03499999999994   -4.23600000000001   -1.34170000000007
C         4.16439999999999   -1.36220000000005   -1.16300000000000
O         3.08519999999995   -0.55029999999998   -0.65399999999998
C         5.40720000000001   -0.48869999999999   -1.31550000000001
H         6.27319999999999   -1.09010000000001   -1.61529999999997
H         5.23300000000002    0.26930000000002   -2.08589999999994
H         5.64270000000000    0.02649999999998   -0.38239999999994
C         3.71799999999989   -1.89829999999997   -2.53110000000001
H         2.82529999999997   -2.52159999999992   -2.42740000000004
H         3.46090000000004   -1.05250000000003   -3.17550000000006
H         4.50570000000003   -2.48289999999997   -3.01790000000002
H        -3.38500000000001   -4.00129999999985   -2.59310000000002
H        -5.21399999999997    1.52080000000005    1.29960000000003
C         0.23589999999997   -1.68140000000004    2.96029999999998
C        -1.12572310755716   -1.93826268457553    3.13262799224628
C         0.99573123413441   -1.74566102777245    4.12499036898934
C        -1.75014616118129   -2.04445059894023    4.37424110198987
H        -1.78155706316489   -2.06939183732132    2.28412921613020
C         0.41259607056442   -1.90730621559080    5.37495384241660
Br        2.89058702206802   -1.74431376425998    4.06779064025852
C        -0.96362153021167   -2.02298737756399    5.52119776787457
O        -3.11155089558023   -2.14248395001998    4.29930205976497
H         1.04454654602207   -1.95554492464973    6.25197999297094
H        -1.38263823713219   -2.13339134465234    6.51200293159455
C        -3.90191992440679   -2.39319410640218    5.45534059082090
C        -4.01401369248290   -3.87965955872282    5.76050577675207
H        -4.88597695567602   -1.99040670770715    5.19506599907738
H        -3.51728503438626   -1.83791585392052    6.31748152435891
H        -4.39161588416898   -4.40665354545411    4.88353417507480
H        -4.70367869023037   -4.03271901746967    6.58956103753160
H        -3.04123976217320   -4.29575005733364    6.02303492262418
