      -----------------------------------------------------------      
     |                   =====================                   |     
     |                           x T B                           |     
     |                   =====================                   |     
     |                         S. Grimme                         |     
     |          Mulliken Center for Theoretical Chemistry        |     
     |                    University of Bonn                     |     
      -----------------------------------------------------------      

   * xtb version 6.4.0 (f63f532) compiled by 'knkr256@seskscpg008.prim.scp' on 2021-04-09

   xtb is free software: you can redistribute it and/or modify it under
   the terms of the GNU Lesser General Public License as published by
   the Free Software Foundation, either version 3 of the License, or
   (at your option) any later version.
   
   xtb is distributed in the hope that it will be useful,
   but WITHOUT ANY WARRANTY; without even the implied warranty of
   MERCHANTABILITY or FITNESS FOR A PARTICULAR PURPOSE.  See the
   GNU Lesser General Public License for more details.
   
   Cite this work as:
   * C. Bannwarth, E. Caldeweyher, S. Ehlert, A. Hansen, P. Pracht,
     J. Seibert, S. Spicher, S. Grimme, WIREs Comput. Mol. Sci., 2020, 11,
     e01493. DOI: 10.1002/wcms.1493
   
   for GFN2-xTB:
   * C. Bannwarth, S. Ehlert and S. Grimme., J. Chem. Theory Comput., 2019,
     15, 1652-1671. DOI: 10.1021/acs.jctc.8b01176
   for GFN1-xTB:
   * S. Grimme, C. Bannwarth, P. Shushkov, J. Chem. Theory Comput., 2017,
     13, 1989-2009. DOI: 10.1021/acs.jctc.7b00118
   for GFN0-xTB:
   * P. Pracht, E. Caldeweyher, S. Ehlert, S. Grimme, ChemRxiv, 2019, preprint.
     DOI: 10.26434/chemrxiv.8326202.v1
   for GFN-FF:
   * S. Spicher and S. Grimme, Angew. Chem. Int. Ed., 2020, 59, 15665-15673.
     DOI: 10.1002/anie.202004239
   
   for DFT-D4:
   * E. Caldeweyher, C. Bannwarth and S. Grimme, J. Chem. Phys., 2017,
     147, 034112. DOI: 10.1063/1.4993215
   * E. Caldeweyher, S. Ehlert, A. Hansen, H. Neugebauer, S. Spicher,
     C. Bannwarth and S. Grimme, J. Chem. Phys., 2019, 150, 154122.
     DOI: 10.1063/1.5090222
   * E. Caldeweyher, J.-M. Mewes, S. Ehlert and S. Grimme, Phys. Chem. Chem. Phys.
     2020, 22, 8499-8512. DOI: 10.1039/D0CP00502A
   
   for sTDA-xTB:
   * S. Grimme and C. Bannwarth, J. Chem. Phys., 2016, 145, 054103.
     DOI: 10.1063/1.4959605
   
   in the mass-spec context:
   * V. Asgeirsson, C. Bauer and S. Grimme, Chem. Sci., 2017, 8, 4879.
     DOI: 10.1039/c7sc00601b
   * J. Koopman and S. Grimme, ACS Omega 2019, 4, 12, 15120-15133.
     DOI: 10.1021/acsomega.9b02011
   
   for metadynamics refer to:
   * S. Grimme, J. Chem. Theory Comput., 2019, 155, 2847-2862
     DOI: 10.1021/acs.jctc.9b00143
   
   for SPH calculations refer to:
   * S. Spicher and S. Grimme, J. Chem. Theory Comput., 2021, 17, 1701-1714
     DOI: 10.1021/acs.jctc.0c01306
   
   with help from (in alphabetical order)
   P. Atkinson, C. Bannwarth, F. Bohle, G. Brandenburg, E. Caldeweyher
   M. Checinski, S. Dohm, S. Ehlert, S. Ehrlich, I. Gerasimov, J. Koopman
   C. Lavinge, S. Lehtola, F. März, M. Müller, F. Musil, H. Neugebauer
   J. Pisarek, P. Pracht, J. Seibert, P. Shushkov, S. Spicher, M. Stahn
   T. Strunk, J. Stückrath, T. Rose, and J. Unsleber
   
 * started run on 2021/10/08 at 07:30:49.192     

           -------------------------------------------------
          |                Calculation Setup                |
           -------------------------------------------------

          program call               : xtb xtbopt.xyz --sp --alpb thf -P 6
          hostname                   : seskscpg010.prim.scp
          coordinate file            : xtbopt.xyz
          omp threads                :                     6
          number of atoms            :                   103
          number of electrons        :                   274
          charge                     :                     0
          spin                       :                   0.0
          first test random number   :      0.90719995047524

   ID    Z sym.   atoms
    1    7 N      1, 11
    2    6 C      2-6, 10, 12-15, 23, 24, 28, 32, 34, 38, 44, 45, 49, 53, 55,
                  59, 65, 66, 70, 74, 76, 80, 86-89, 91, 93, 97, 98
    3    1 H      7-9, 16-18, 20, 25-27, 29-31, 35-37, 39-41, 46-48, 50-52,
                  56-58, 60-62, 67-69, 71-73, 77-79, 81-85, 90, 95, 96, 99-103
    4   77 Ir     19
    5    5 B      21, 42, 63
    6    8 O      22, 33, 43, 54, 64, 75, 94
    7   35 Br     92

molecular fragmentation (1/2 indicates fragments):
111111111111111111111111111111111111111111111111111111111111111111111111
1111111111111222222222222222222
# atoms in fragment 1/2:    85    18
 fragment masses (1/2) :      730.32      200.05
CMA distance (Bohr)    :   8.731
constraining FC (au)   :  0.0500

           -------------------------------------------------
          |                 G F N 2 - x T B                 |
           -------------------------------------------------

        Reference                      10.1021/acs.jctc.8b01176
      * Hamiltonian:
        H0-scaling (s, p, d)           1.850000    2.230000    2.230000
        zeta-weighting                 0.500000
      * Dispersion:
        s8                             2.700000
        a1                             0.520000
        a2                             5.000000
        s9                             5.000000
      * Repulsion:
        kExp                           1.500000    1.000000
        rExp                           1.000000
      * Coulomb:
        alpha                          2.000000
        third order                    shell-resolved
        anisotropic                    true
        a3                             3.000000
        a5                             4.000000
        cn-shift                       1.200000
        cn-exp                         4.000000
        max-rad                        5.000000

      * Solvation model:               ALPB
        Solvent                        thf
        Parameter file                 internal GFN2-xTB/ALPB
        Dielectric constant                7.6000E+00
        Reference state                gsolv [1 M gas/solution]
        Free energy shift                  5.3248E-03 Eh       3.3414E+00 kcal/mol
        Temperature                        2.9815E+02 K
        Density                            8.8300E-01 kg/L
        Solvent mass                       7.2106E+01 g/mol
        Interaction kernel             P16
        Born radius scaling (c1)           1.7311E+00
        Born radii integrator          GBOBC
        Born offset                        0.0000E+00 a0       0.0000E+00 AA
        H-bond correction              true
        Ion screening                  false
        Surface tension                    1.0000E-05 Eh       1.5569E+01 dyn/cm
        Grid points                               230 per atom
q/qsh data taken from xtbrestart
CAMM data taken from xtbrestart

          ...................................................
          :                      SETUP                      :
          :.................................................:
          :  # basis functions                 265          :
          :  # atomic orbitals                 263          :
          :  # shells                          155          :
          :  # electrons                       274          :
          :  max. iterations                   250          :
          :  Hamiltonian                  GFN2-xTB          :
          :  restarted?                       true          :
          :  GBSA solvation                   true          :
          :  PC potential                    false          :
          :  electronic temp.          300.0000000     K    :
          :  accuracy                    1.0000000          :
          :  -> integral cutoff          0.2500000E+02      :
          :  -> integral neglect         0.1000000E-07      :
          :  -> SCF convergence          0.1000000E-05 Eh   :
          :  -> wf. convergence          0.1000000E-03 e    :
          :  Broyden damping             0.4000000          :
          ...................................................

 iter      E             dE          RMSdq      gap      omega  full diag
   1   -152.2956562 -0.152296E+03  0.124E-04    0.91       0.0  T
   2   -152.2956562  0.498744E-09  0.140E-04    0.91      70.2  T
   3   -152.2956562 -0.653955E-09  0.954E-05    0.91     103.3  T

   *** convergence criteria satisfied after 3 iterations ***

         #    Occupation            Energy/Eh            Energy/eV
      -------------------------------------------------------------
         1        2.0000           -0.8118503             -22.0916
       ...           ...                  ...                  ...
       131        2.0000           -0.3676475             -10.0042
       132        2.0000           -0.3546205              -9.6497
       133        2.0000           -0.3376820              -9.1888
       134        2.0000           -0.3284702              -8.9381
       135        2.0000           -0.3263602              -8.8807
       136        2.0000           -0.3170702              -8.6279
       137        2.0000           -0.3128568              -8.5133 (HOMO)
       138                         -0.2795963              -7.6082 (LUMO)
       139                         -0.2519809              -6.8568
       140                         -0.2492694              -6.7830
       141                         -0.2236715              -6.0864
       142                         -0.2163777              -5.8879
       ...                                ...                  ...
       263                          3.8851843             105.7212
      -------------------------------------------------------------
                  HL-Gap            0.0332605 Eh            0.9051 eV
             Fermi-level           -0.2962210 Eh           -8.0606 eV

 SCC (total)                   0 d,  0 h,  0 min,  0.120 sec
 SCC setup                      ...        0 min,  0.002 sec (  1.911%)
 Dispersion                     ...        0 min,  0.002 sec (  1.682%)
 classical contributions        ...        0 min,  0.000 sec (  0.126%)
 integral evaluation            ...        0 min,  0.034 sec ( 27.974%)
 iterations                     ...        0 min,  0.035 sec ( 29.367%)
 molecular gradient             ...        0 min,  0.046 sec ( 38.353%)
 printout                       ...        0 min,  0.001 sec (  0.539%)

         :::::::::::::::::::::::::::::::::::::::::::::::::::::
         ::                     SUMMARY                     ::
         :::::::::::::::::::::::::::::::::::::::::::::::::::::
         :: total energy            -150.420033872462 Eh    ::
         :: total w/o Gsasa/hb      -150.378519887658 Eh    ::
         :: gradient norm              0.032462375241 Eh/a0 ::
         :: HOMO-LUMO gap              0.905065193589 eV    ::
         ::.................................................::
         :: SCC energy              -152.295656192938 Eh    ::
         :: -> isotropic ES            0.259754046216 Eh    ::
         :: -> anisotropic ES          0.000923124003 Eh    ::
         :: -> anisotropic XC          0.030569623194 Eh    ::
         :: -> dispersion             -0.146882675297 Eh    ::
         :: -> Gsolv                  -0.052884359459 Eh    ::
         ::    -> Gelec               -0.011370374656 Eh    ::
         ::    -> Gsasa               -0.043992073842 Eh    ::
         ::    -> Ghb                 -0.002846726405 Eh    ::
         ::    -> Gshift               0.005324815444 Eh    ::
         :: repulsion energy           1.866636645543 Eh    ::
         :: add. restraining           0.000000000000 Eh    ::
         :: total charge               0.000000000592 e     ::
         :::::::::::::::::::::::::::::::::::::::::::::::::::::

           -------------------------------------------------
          |                Property Printout                |
           -------------------------------------------------

    * Orbital Energies and Occupations

         #    Occupation            Energy/Eh            Energy/eV
      -------------------------------------------------------------
         1        2.0000           -0.8118503             -22.0916
       ...           ...                  ...                  ...
       125        2.0000           -0.3973382             -10.8121
       126        2.0000           -0.3917188             -10.6592
       127        2.0000           -0.3898738             -10.6090
       128        2.0000           -0.3891053             -10.5881
       129        2.0000           -0.3847274             -10.4690
       130        2.0000           -0.3806870             -10.3590
       131        2.0000           -0.3676475             -10.0042
       132        2.0000           -0.3546205              -9.6497
       133        2.0000           -0.3376820              -9.1888
       134        2.0000           -0.3284702              -8.9381
       135        2.0000           -0.3263602              -8.8807
       136        2.0000           -0.3170702              -8.6279
       137        2.0000           -0.3128568              -8.5133 (HOMO)
       138                         -0.2795963              -7.6082 (LUMO)
       139                         -0.2519809              -6.8568
       140                         -0.2492694              -6.7830
       141                         -0.2236715              -6.0864
       142                         -0.2163777              -5.8879
       143                         -0.2081189              -5.6632
       144                         -0.1978282              -5.3832
       145                         -0.1780506              -4.8450
       146                         -0.1521758              -4.1409
       147                         -0.1300038              -3.5376
       148                         -0.1262756              -3.4361
       ...                                ...                  ...
       263                          3.8851843             105.7212
      -------------------------------------------------------------
                  HL-Gap            0.0332605 Eh            0.9051 eV
             Fermi-level           -0.2962210 Eh           -8.0606 eV

     #   Z          covCN         q      C6AA      α(0)
     1   7 N        2.557    -0.130    23.845     7.252
     2   6 C        2.955     0.075    26.314     8.414
     3   6 C        2.918    -0.043    29.077     8.843
     4   6 C        2.924    -0.022    28.551     8.762
     5   6 C        2.915    -0.044    29.092     8.845
     6   6 C        2.893     0.050    26.885     8.501
     7   1 H        0.926     0.051     2.304     2.374
     8   1 H        0.926     0.056     2.241     2.341
     9   1 H        0.926     0.046     2.368     2.407
    10   6 C        2.953     0.072    26.399     8.427
    11   7 N        2.535    -0.143    24.134     7.296
    12   6 C        2.890     0.044    27.007     8.520
    13   6 C        2.915    -0.045    29.115     8.848
    14   6 C        2.923    -0.025    28.636     8.776
    15   6 C        2.918    -0.045    29.127     8.850
    16   1 H        0.926     0.044     2.391     2.418
    17   1 H        0.926     0.049     2.336     2.390
    18   1 H        0.926     0.069     2.093     2.262
    19  77 Ir       5.939    -0.140   386.288    36.346
    20   1 H        0.977     0.088     1.894     2.151
    21   5 B        2.637     0.409    15.922     6.735
    22   8 O        1.638    -0.405    20.963     6.180
    23   6 C        3.836     0.130    18.448     6.111
    24   6 C        3.755    -0.122    22.888     6.822
    25   1 H        0.925     0.055     2.261     2.352
    26   1 H        0.925     0.046     2.372     2.409
    27   1 H        0.925     0.052     2.292     2.367
    28   6 C        3.754    -0.109    22.650     6.786
    29   1 H        0.925     0.049     2.334     2.389
    30   1 H        0.925     0.043     2.408     2.426
    31   1 H        0.925     0.026     2.641     2.541
    32   6 C        3.844     0.132    18.420     6.105
    33   8 O        1.637    -0.410    21.050     6.193
    34   6 C        3.755    -0.124    22.928     6.828
    35   1 H        0.925     0.056     2.246     2.343
    36   1 H        0.925     0.047     2.361     2.403
    37   1 H        0.925     0.050     2.320     2.382
    38   6 C        3.754    -0.119    22.842     6.815
    39   1 H        0.925     0.044     2.392     2.419
    40   1 H        0.925     0.054     2.276     2.359
    41   1 H        0.925     0.047     2.360     2.402
    42   5 B        2.612     0.411    16.022     6.780
    43   8 O        1.637    -0.379    20.456     6.105
    44   6 C        3.830     0.130    18.456     6.113
    45   6 C        3.755    -0.131    23.076     6.850
    46   1 H        0.925     0.065     2.143     2.289
    47   1 H        0.925     0.057     2.230     2.335
    48   1 H        0.925     0.052     2.292     2.367
    49   6 C        3.755    -0.121    22.865     6.818
    50   1 H        0.925     0.049     2.331     2.388
    51   1 H        0.925     0.049     2.328     2.386
    52   1 H        0.925     0.048     2.341     2.393
    53   6 C        3.824     0.129    18.465     6.115
    54   8 O        1.637    -0.394    20.740     6.147
    55   6 C        3.755    -0.122    22.884     6.821
    56   1 H        0.925     0.048     2.349     2.397
    57   1 H        0.925     0.051     2.310     2.377
    58   1 H        0.925     0.049     2.331     2.388
    59   6 C        3.755    -0.124    22.925     6.827
    60   1 H        0.925     0.054     2.273     2.358
    61   1 H        0.925     0.053     2.287     2.365
    62   1 H        0.925     0.048     2.345     2.395
    63   5 B        2.628     0.410    15.951     6.749
    64   8 O        1.638    -0.372    20.328     6.086
    65   6 C        3.833     0.126    18.507     6.121
    66   6 C        3.755    -0.135    23.155     6.861
    67   1 H        0.925     0.057     2.235     2.338
    68   1 H        0.925     0.066     2.130     2.282
    69   1 H        0.925     0.054     2.269     2.355
    70   6 C        3.755    -0.131    23.075     6.849
    71   1 H        0.925     0.066     2.130     2.282
    72   1 H        0.925     0.052     2.293     2.368
    73   1 H        0.925     0.052     2.299     2.371
    74   6 C        3.831     0.128    18.485     6.117
    75   8 O        1.636    -0.383    20.529     6.116
    76   6 C        3.755    -0.126    22.968     6.833
    77   1 H        0.925     0.053     2.277     2.360
    78   1 H        0.925     0.053     2.285     2.364
    79   1 H        0.925     0.058     2.225     2.333
    80   6 C        3.755    -0.122    22.894     6.823
    81   1 H        0.925     0.039     2.459     2.452
    82   1 H        0.925     0.050     2.321     2.383
    83   1 H        0.925     0.056     2.241     2.341
    84   1 H        0.926     0.053     2.280     2.361
    85   1 H        0.926     0.048     2.346     2.395
    86   6 C        2.888    -0.034    28.848     8.806
    87   6 C        2.948    -0.056    29.402     8.893
    88   6 C        2.922     0.058    26.689     8.472
    89   6 C        2.855     0.136    25.026     8.199
    90   1 H        0.926     0.043     2.407     2.426
    91   6 C        3.020    -0.045    29.098     8.848
    92  35 Br       1.086    -0.172   189.822    22.215
    93   6 C        2.918    -0.077    29.911     8.968
    94   8 O        1.705    -0.306    19.092     5.899
    95   1 H        0.926     0.065     2.144     2.290
    96   1 H        0.926     0.047     2.359     2.402
    97   6 C        3.686     0.078    19.474     6.317
    98   6 C        3.750    -0.126    22.975     6.836
    99   1 H        0.924     0.056     2.249     2.345
   100   1 H        0.924     0.035     2.512     2.478
   101   1 H        0.925     0.056     2.250     2.346
   102   1 H        0.925     0.057     2.237     2.339
   103   1 H        0.925     0.052     2.291     2.367

 Mol. C6AA /au·bohr⁶  :     117919.456642
 Mol. C8AA /au·bohr⁸  :    3261962.701066
 Mol. α(0) /au        :        532.392014


Wiberg/Mayer (AO) data.
largest (>0.10) Wiberg bond orders for each atom

 ---------------------------------------------------------------------------
     #   Z sym  total        # sym  WBO       # sym  WBO       # sym  WBO
 ---------------------------------------------------------------------------
     1   7 N    3.394 --     6 C    1.387     2 C    1.311    19 Ir   0.435
     2   6 C    3.979 --     3 C    1.346     1 N    1.311    10 C    1.096
     3   6 C    3.988 --     4 C    1.486     2 C    1.346     9 H    0.962
                             6 C    0.106
     4   6 C    3.984 --     3 C    1.486     5 C    1.380    84 H    0.969
     5   6 C    3.978 --     6 C    1.462     4 C    1.380     8 H    0.968
     6   6 C    3.978 --     5 C    1.462     1 N    1.387     7 H    0.957
                             3 C    0.106
     7   1 H    0.997 --     6 C    0.957
     8   1 H    0.996 --     5 C    0.968
     9   1 H    0.997 --     3 C    0.962
    10   6 C    3.978 --    15 C    1.352    11 N    1.301     2 C    1.096
    11   7 N    3.374 --    12 C    1.381    10 C    1.301    19 Ir   0.399
    12   6 C    3.974 --    13 C    1.462    11 N    1.381    18 H    0.949
                            15 C    0.105
    13   6 C    3.983 --    12 C    1.462    14 C    1.381    17 H    0.969
    14   6 C    3.982 --    15 C    1.479    13 C    1.381    85 H    0.969
    15   6 C    3.989 --    14 C    1.479    10 C    1.352    16 H    0.962
                            12 C    0.105
    16   1 H    0.998 --    15 C    0.962
    17   1 H    0.997 --    13 C    0.969
    18   1 H    0.995 --    12 C    0.949
    19  77 Ir   5.138 --    63 B    0.864    42 B    0.855    21 B    0.716
                            86 C    0.581    20 H    0.542     1 N    0.435
                            11 N    0.399
    20   1 H    0.990 --    19 Ir   0.542    86 C    0.348
    21   5 B    3.281 --    33 O    1.105    22 O    1.103    19 Ir   0.716
    22   8 O    2.198 --    21 B    1.103    23 C    0.940
    23   6 C    3.941 --    24 C    0.996    28 C    0.991    32 C    0.941
                            22 O    0.940
    24   6 C    3.993 --    23 C    0.996    26 H    0.983    27 H    0.983
                            25 H    0.982
    25   1 H    0.997 --    24 C    0.982
    26   1 H    0.997 --    24 C    0.983
    27   1 H    0.997 --    24 C    0.983
    28   6 C    3.997 --    23 C    0.991    31 H    0.985    30 H    0.984
                            29 H    0.984
    29   1 H    0.997 --    28 C    0.984
    30   1 H    0.998 --    28 C    0.984
    31   1 H    0.999 --    28 C    0.985
    32   6 C    3.938 --    38 C    0.997    34 C    0.991    23 C    0.941
                            33 O    0.936
    33   8 O    2.193 --    21 B    1.105    32 C    0.936
    34   6 C    3.993 --    32 C    0.991    36 H    0.983    37 H    0.981
                            35 H    0.979
    35   1 H    0.997 --    34 C    0.979
    36   1 H    0.997 --    34 C    0.983
    37   1 H    0.997 --    34 C    0.981
    38   6 C    3.994 --    32 C    0.997    41 H    0.984    39 H    0.983
                            40 H    0.982
    39   1 H    0.998 --    38 C    0.983
    40   1 H    0.997 --    38 C    0.982
    41   1 H    0.997 --    38 C    0.984
    42   5 B    3.337 --    43 O    1.136    54 O    1.098    19 Ir   0.855
    43   8 O    2.238 --    42 B    1.136    44 C    0.934
    44   6 C    3.933 --    45 C    0.996    49 C    0.992    53 C    0.937
                            43 O    0.934
    45   6 C    3.991 --    44 C    0.996    48 H    0.983    47 H    0.981
                            46 H    0.979
    46   1 H    0.996 --    45 C    0.979
    47   1 H    0.996 --    45 C    0.981
    48   1 H    0.996 --    45 C    0.983
    49   6 C    3.994 --    44 C    0.992    50 H    0.983    51 H    0.982
                            52 H    0.980
    50   1 H    0.997 --    49 C    0.983
    51   1 H    0.997 --    49 C    0.982
    52   1 H    0.998 --    49 C    0.980
    53   6 C    3.935 --    55 C    0.995    59 C    0.993    44 C    0.937
                            54 O    0.933
    54   8 O    2.219 --    42 B    1.098    53 C    0.933
    55   6 C    3.994 --    53 C    0.995    57 H    0.983    58 H    0.983
                            56 H    0.983
    56   1 H    0.998 --    55 C    0.983
    57   1 H    0.997 --    55 C    0.983
    58   1 H    0.996 --    55 C    0.983
    59   6 C    3.993 --    53 C    0.993    62 H    0.983    61 H    0.983
                            60 H    0.979
    60   1 H    0.997 --    59 C    0.979
    61   1 H    0.996 --    59 C    0.983
    62   1 H    0.997 --    59 C    0.983
    63   5 B    3.369 --    75 O    1.120    64 O    1.118    19 Ir   0.864
    64   8 O    2.241 --    63 B    1.118    65 C    0.932
    65   6 C    3.934 --    70 C    0.997    66 C    0.992    74 C    0.939
                            64 O    0.932
    66   6 C    3.991 --    65 C    0.992    69 H    0.982    67 H    0.980
                            68 H    0.978
    67   1 H    0.997 --    66 C    0.980
    68   1 H    0.995 --    66 C    0.978
    69   1 H    0.996 --    66 C    0.982
    70   6 C    3.991 --    65 C    0.997    72 H    0.983    73 H    0.982
                            71 H    0.981
    71   1 H    0.995 --    70 C    0.981
    72   1 H    0.996 --    70 C    0.983
    73   1 H    0.997 --    70 C    0.982
    74   6 C    3.932 --    76 C    0.997    80 C    0.992    65 C    0.939
                            75 O    0.931
    75   8 O    2.233 --    63 B    1.120    74 C    0.931
    76   6 C    3.992 --    74 C    0.997    78 H    0.982    77 H    0.982
                            79 H    0.982
    77   1 H    0.996 --    76 C    0.982
    78   1 H    0.997 --    76 C    0.982
    79   1 H    0.997 --    76 C    0.982
    80   6 C    3.995 --    74 C    0.992    81 H    0.984    82 H    0.983
                            83 H    0.983
    81   1 H    0.998 --    80 C    0.984
    82   1 H    0.997 --    80 C    0.983
    83   1 H    0.996 --    80 C    0.983
    84   1 H    0.996 --     4 C    0.969
    85   1 H    0.997 --    14 C    0.969
    86   6 C    3.943 --    87 C    1.395    88 C    1.357    19 Ir   0.581
                            20 H    0.348
    87   6 C    3.984 --    86 C    1.395    89 C    1.354    90 H    0.956
                            91 C    0.103
    88   6 C    3.928 --    91 C    1.422    86 C    1.357    92 Br   0.953
    89   6 C    3.931 --    93 C    1.366    87 C    1.354    94 O    1.052
    90   1 H    0.998 --    87 C    0.956
    91   6 C    3.984 --    93 C    1.428    88 C    1.422    95 H    0.965
                            87 C    0.103
    92  35 Br   1.113 --    88 C    0.953
    93   6 C    3.980 --    91 C    1.428    89 C    1.366    96 H    0.962
    94   8 O    2.205 --    89 C    1.052    97 C    0.960
    95   1 H    0.993 --    91 C    0.965
    96   1 H    0.996 --    93 C    0.962
    97   6 C    3.938 --    98 C    1.010    99 H    0.970   100 H    0.968
                            94 O    0.960
    98   6 C    3.991 --    97 C    1.010   101 H    0.986   103 H    0.984
                           102 H    0.984
    99   1 H    0.996 --    97 C    0.970
   100   1 H    0.999 --    97 C    0.968
   101   1 H    0.997 --    98 C    0.986
   102   1 H    0.996 --    98 C    0.984
   103   1 H    0.997 --    98 C    0.984
 ---------------------------------------------------------------------------

Topologies differ in total number of bonds
Writing topology from bond orders to xtbtopo.mol

molecular dipole:
                 x           y           z       tot (Debye)
 q only:       -0.160       0.247      -0.507
   full:       -2.526       0.753      -1.463       7.664
molecular quadrupole (traceless):
                xx          xy          yy          xz          yz          zz
 q only:        4.550       5.140      -6.416     -10.176       6.687       1.866
  q+dip:       -3.063      11.630       0.199     -24.016      15.856       2.864
   full:       -3.742      13.062       1.767     -27.190      12.873       1.975


           -------------------------------------------------
          | TOTAL ENERGY             -150.420033872462 Eh   |
          | GRADIENT NORM               0.032462375241 Eh/α |
          | HOMO-LUMO GAP               0.905065193589 eV   |
           -------------------------------------------------

------------------------------------------------------------------------
 * finished run on 2021/10/08 at 07:30:49.360     
------------------------------------------------------------------------
 total:
 * wall-time:     0 d,  0 h,  0 min,  0.168 sec
 *  cpu-time:     0 d,  0 h,  0 min,  0.982 sec
 * ratio c/w:     5.860 speedup
 SCF:
 * wall-time:     0 d,  0 h,  0 min,  0.122 sec
 *  cpu-time:     0 d,  0 h,  0 min,  0.725 sec
 * ratio c/w:     5.964 speedup

