103
 energy: -150.403339465362 gnorm: 0.075803565251 xtb: 6.4.0 (f63f532)
N        -0.96509999999998   -2.11530000000000   -0.24090000000001
C        -2.24700000000010   -1.69839999999998   -0.36219999999995
C        -3.14040000000004   -2.36819999999970   -1.21199999999969
C        -2.70220000000000   -3.47560000000006   -1.93050000000010
C        -1.37780000000002   -3.89880000000003   -1.78759999999919
C        -0.54289999999980   -3.18670000000007   -0.93509999999950
H         0.49809999999997   -3.45630000000001   -0.78940000000000
H        -0.99569999999999   -4.76029999999988   -2.32770000000003
H        -4.16500000000000   -2.02889999999992   -1.31829999999999
C        -2.62129999999995   -0.50949999999993    0.44100000000029
N        -1.62599999999989    0.07329999999997    1.16019999999994
C        -1.89679999999997    1.15239999999991    1.91690000000007
C        -3.17230000000005    1.70330000000005    1.99650000000006
C        -4.20509999999998    1.11739999999996    1.26270000000008
C        -3.92610000000001    0.00250000000003    0.47819999999997
H        -4.71959999999999   -0.46420000000002   -0.09520000000000
H        -3.34630000000001    2.57510000000005    2.62070000000002
H        -1.04449999999997    1.57419999999997    2.43690000000001
Ir        0.42150000000000   -0.81650000000000    0.91330000000000
H         0.87260000000000   -2.23030000000000    1.54049999999999
B         0.50670000000002    0.41559999999997   -0.81540000000004
O         0.19500000000004   -0.04700000000010   -2.09150000000000
C         0.00650000000005    1.10039999999975   -2.95430000000004
C         0.49019999999988    0.74740000000006   -4.35780000000011
H         1.51609999999987    0.37380000000001   -4.33700000000000
H         0.44730000000001    1.62240000000004   -5.01670000000002
H        -0.14739999999994   -0.03390000000001   -4.78430000000000
C        -1.50120000000003    1.39559999999995   -2.96669999999994
H        -1.75369999999999    2.21459999999999   -3.64849999999995
H        -2.03200000000004    0.49449999999980   -3.28930000000002
H        -1.85169999999996    1.65209999999999   -1.96219999999998
C         0.84229999999999    2.20670000000010   -2.22040000000012
O         0.75200000000001    1.78259999999995   -0.83689999999991
C         2.32930000000012    2.18619999999997   -2.59900000000022
H         2.74130000000002    1.18500000000003   -2.45749999999999
H         2.48870000000001    2.51300000000003   -3.63179999999996
H         2.87200000000000    2.86270000000000   -1.93199999999997
C         0.28439999999991    3.62289999999998   -2.33660000000000
H        -0.72649999999989    3.69040000000001   -1.92910000000000
H         0.92130000000004    4.31479999999997   -1.77609999999996
H         0.26430000000003    3.94810000000002   -3.38319999999996
B         1.56300000000010    0.60960000000000    1.84839999999999
O         2.92780000000005    0.55229999999991    2.15020000000001
C         3.36330000000005    1.88660000000011    2.50259999999877
C         4.53140000000011    1.78589999999987    3.47739999999994
H         4.27909999999998    1.16090000000018    4.33690000000002
H         5.39390000000000    1.33789999999996    2.97340000000007
H         4.82389999999998    2.77870000000005    3.83820000000009
C         3.79700000000007    2.56849999999987    1.19669999999972
H         4.20020000000002    3.57090000000002    1.37680000000002
H         4.56740000000002    1.95560000000003    0.72110000000008
H         2.95240000000006    2.63259999999999    0.50540000000008
C         2.05039999999998    2.50090000000011    3.09319999999987
O         1.03750000000002    1.81619999999994    2.31910000000005
C         1.89099999999996    4.00449999999988    2.88649999999998
H         1.87290000000001    4.25439999999996    1.82410000000006
H         0.94939999999999    4.34260000000000    3.33170000000002
H         2.71079999999997    4.55149999999998    3.36630000000011
C         1.82470000000008    2.13200000000106    4.56520000000024
H         1.92609999999998    1.05329999999987    4.71319999999997
H         2.52609999999998    2.65280000000008    5.22540000000008
H         0.80629999999996    2.41579999999985    4.84900000000006
B         2.27820000000000   -1.33090000000001    0.17409999999999
O         2.89459999999998   -2.57740000000003    0.38449999999996
C         4.26929999999998   -2.48200000000003   -0.07210000000003
C         5.10899999999998   -2.05379999999998    1.14009999999995
H         4.76349999999999   -1.08739999999998    1.51750000000002
H         4.98049999999996   -2.79470000000006    1.93589999999997
H         6.17419999999998   -1.99290000000005    0.89299999999999
C         4.71949999999996   -3.84660000000001   -0.58470000000004
H         4.75279999999996   -4.56130000000004    0.24419999999997
H         5.72329999999998   -3.78370000000003   -1.02010000000004
H         4.03499999999994   -4.23600000000001   -1.34170000000007
C         4.16439999999999   -1.36220000000005   -1.16300000000000
O         3.08519999999995   -0.55029999999998   -0.65399999999998
C         5.40720000000001   -0.48869999999999   -1.31550000000001
H         6.27319999999999   -1.09010000000001   -1.61529999999997
H         5.23300000000002    0.26930000000002   -2.08589999999994
H         5.64270000000000    0.02649999999998   -0.38239999999994
C         3.71799999999989   -1.89829999999997   -2.53110000000001
H         2.82529999999997   -2.52159999999992   -2.42740000000004
H         3.46090000000004   -1.05250000000003   -3.17550000000006
H         4.50570000000003   -2.48289999999997   -3.01790000000002
H        -3.38500000000001   -4.00129999999985   -2.59310000000002
H        -5.21399999999997    1.52080000000005    1.29960000000003
C         0.23589999999997   -1.68140000000004    2.96029999999998
C        -1.12572310755716   -1.93826268457553    3.13262799224628
C         0.99573123413441   -1.74566102777245    4.12499036898934
C        -1.75014616118129   -2.04445059894023    4.37424110198987
H        -1.78155706316489   -2.06939183732132    2.28412921613020
C         0.41259607056442   -1.90730621559080    5.37495384241660
Br        2.89058702206802   -1.74431376425998    4.06779064025852
C        -0.96362153021167   -2.02298737756399    5.52119776787457
O        -3.11155089558023   -2.14248395001998    4.29930205976497
H         1.04454654602207   -1.95554492464973    6.25197999297094
H        -1.38263823713219   -2.13339134465234    6.51200293159455
C        -3.90191992440679   -2.39319410640218    5.45534059082090
C        -4.01401369248290   -3.87965955872282    5.76050577675207
H        -4.88597695567602   -1.99040670770715    5.19506599907738
H        -3.51728503438626   -1.83791585392052    6.31748152435891
H        -4.39161588416898   -4.40665354545411    4.88353417507480
H        -4.70367869023037   -4.03271901746967    6.58956103753160
H        -3.04123976217320   -4.29575005733364    6.02303492262418
103
 energy: -150.410184040182 gnorm: 0.045998055726 xtb: 6.4.0 (f63f532)
N        -0.96087983237237   -2.09379882847166   -0.25778641084574
C        -2.23866112251083   -1.68235276826036   -0.37124312043060
C        -3.13406407405558   -2.35863289269922   -1.20900636487832
C        -2.70374981298454   -3.46183439150000   -1.92237180183481
C        -1.38397595667464   -3.88071691248951   -1.78311128196552
C        -0.55358724646864   -3.16395144636346   -0.94339481099272
H         0.47977199699955   -3.44496316536893   -0.79205524656277
H        -1.00769391011179   -4.74205808405562   -2.31635894059152
H        -4.15480230895025   -2.02404439033614   -1.31274548688653
C        -2.61109562269245   -0.49967418541091    0.42192286542417
N        -1.61923600046639    0.08864583376157    1.12608906414603
C        -1.89980147931762    1.15152534587798    1.88118208310591
C        -3.16884728540210    1.69304609562504    1.97808524980144
C        -4.19877205410107    1.10723088622371    1.25136560536295
C        -3.91612339592388    0.00302660210325    0.46833744771738
H        -4.70799034140888   -0.46475970087358   -0.09623919611539
H        -3.34515372384966    2.55230650839272    2.60994373600674
H        -1.05749686631992    1.56667504144085    2.41422111804160
Ir        0.42150000000000   -0.81650000000000    0.91330000000000
H         0.87260000000000   -2.23030000000000    1.54049999999999
B         0.48890118349995    0.42424693416102   -0.78851459550355
O         0.17507252178409   -0.03603709005342   -2.06032458083593
C         0.01236810847695    1.09571480031509   -2.94229434365946
C         0.49237123342394    0.74628913999394   -4.34705714166488
H         1.51129012231634    0.36960047377712   -4.32544546179330
H         0.44801091210853    1.62195418818720   -4.99523873269316
H        -0.14630200458307   -0.02920368457304   -4.76844031124498
C        -1.49160565838744    1.39909328375835   -2.97050689405737
H        -1.72877652728374    2.21210547302538   -3.65496496564956
H        -2.02186235968018    0.50234949980758   -3.29112552445898
H        -1.83932067671457    1.65445812024849   -1.96933225415872
C         0.83394907571024    2.20566864561392   -2.21063328908865
O         0.75554762690294    1.77912984296252   -0.83292757227436
C         2.31650125940782    2.18946760621153   -2.59807581152308
H         2.72118651326410    1.19055954772115   -2.44822590608426
H         2.46801139875342    2.51103456879813   -3.62777232514696
H         2.85875481689348    2.86431511900861   -1.93687279342955
C         0.28287965409364    3.62198353617149   -2.33896492220830
H        -0.72077644323396    3.69187715494367   -1.92768012256605
H         0.92235021893173    4.30582496876701   -1.78238718056721
H         0.26624677054492    3.93393214363293   -3.38333203825297
B         1.56233172953836    0.62126756601218    1.85417136780525
O         2.92260227495585    0.57359677808805    2.12796311624705
C         3.36263315957130    1.89126780079006    2.50912337698621
C         4.53123175590608    1.78988665054593    3.48078346343017
H         4.28098502551706    1.15761740546961    4.32834888779451
H         5.38494420720911    1.34374881657577    2.97352528642272
H         4.81467999333854    2.77961960457217    3.83800659140963
C         3.79870822426699    2.57687154602302    1.21043659686708
H         4.20129112404984    3.57159683890600    1.39549762286344
H         4.56275052004791    1.96354768176083    0.73572695531730
H         2.95127972335351    2.62972479327890    0.52795389929868
C         2.05172748797265    2.50730288672871    3.08989935174365
O         1.03628434978437    1.81075234277432    2.33921078918188
C         1.89256894112820    4.00884662128564    2.88939756701270
H         1.86787715868867    4.25174996751670    1.83088890914974
H         0.95518411666034    4.33841095645002    3.33606723122406
H         2.71385575287123    4.54356684102479    3.36568981459219
C         1.83096666322315    2.14439088197468    4.56249532477508
H         1.93751434874999    1.07055926572055    4.70526485411969
H         2.53258893602801    2.66457289059294    5.21114685819502
H         0.81579931794277    2.42118979938899    4.84774061307153
B         2.27820000000000   -1.33090000000001    0.17409999999999
O         2.89943995968200   -2.56151757060451    0.39104061298177
C         4.26519445316072   -2.48406771719993   -0.07698173973229
C         5.11244762469349   -2.06000228037511    1.12637367925182
H         4.75986685319975   -1.10078617078720    1.50113365641397
H         4.98197313012078   -2.79105862066071    1.92277693210646
H         6.16957884529531   -2.00086188344470    0.87387390751747
C         4.71831485512799   -3.84667376525646   -0.58643147324702
H         4.74866298908197   -4.54942800816652    0.24488797728883
H         5.71635826703650   -3.77471540328168   -1.01753084015372
H         4.03331257979728   -4.23496232923230   -1.33561364510323
C         4.16578163252919   -1.36100055492723   -1.15707602401598
O         3.07286242916824   -0.56353593613561   -0.66220730658397
C         5.40929728350923   -0.49302302374442   -1.31343156104279
H         6.26524218733786   -1.09935750700269   -1.60826830345998
H         5.23202264534103    0.25842280522698   -2.08178297953834
H         5.63673536823651    0.02007155733939   -0.38355523743012
C         3.72933064825545   -1.89973908121717   -2.52551832930143
H         2.83732491557722   -2.51544007788990   -2.41761912064665
H         3.47291782695990   -1.05824683521630   -3.16778978895243
H         4.51992106280877   -2.47705818831733   -3.00184684546275
H        -3.38312950062557   -3.98762891809392   -2.57948417275810
H        -5.20397435102491    1.50461791229871    1.29551370170790
C         0.23589999999997   -1.68140000000004    2.96029999999998
C        -1.12483145510661   -1.93877421633536    3.13448673069343
C         0.99559140890041   -1.74331283421957    4.12477669143395
C        -1.74692134338296   -2.04429712856219    4.37628460411476
H        -1.78030729118800   -2.07132624512375    2.28792152803670
C         0.41361551720411   -1.90414546335748    5.37417083694362
Br        2.89447581560882   -1.74100109909866    4.06836921945418
C        -0.95998982502692   -2.02104418903129    5.52112333451149
O        -3.10831232473830   -2.14372632044794    4.30294097572043
H         1.04509499245783   -1.95077172967830    6.24942970080000
H        -1.37711088521647   -2.13067524032220    6.51015377224346
C        -3.89722281113862   -2.39349687453696    5.45783580806490
C        -4.00854580792217   -3.88151011864548    5.76493527740732
H        -4.88185522916298   -1.99219060207217    5.19758469440602
H        -3.51342060260219   -1.83738821514227    6.31928936891765
H        -4.38566169498159   -4.40830167852114    4.89040761184001
H        -4.69587573159252   -4.03422156511279    6.59306337329412
H        -3.03700420804575   -4.29593612686178    6.02583756545599
103
 energy: -150.412118729029 gnorm: 0.036542836795 xtb: 6.4.0 (f63f532)
N        -0.95425078473900   -2.07979663956141   -0.26898271914215
C        -2.22844860481222   -1.66671998701266   -0.38216619932190
C        -3.12811349643639   -2.34323131546053   -1.21421974144367
C        -2.70656871358273   -3.44697188552288   -1.92361591763895
C        -1.38768694192699   -3.86651568359418   -1.78628739216446
C        -0.55842350303660   -3.14887757851844   -0.95136272027104
H         0.47327220202127   -3.43408169404602   -0.80618899554658
H        -1.01708146168667   -4.72919975285060   -2.31478656891038
H        -4.14787336048726   -2.01085154161323   -1.31000966910628
C        -2.60007442305218   -0.49152762825360    0.40489513973147
N        -1.61355556412215    0.09399735332879    1.11083808988674
C        -1.90058157802029    1.15202531179344    1.85809830784096
C        -3.16670313615423    1.69086020405241    1.96001053892845
C        -4.19550500459200    1.10259183184385    1.23460419119281
C        -3.90648579654593    0.00664706854391    0.44981995039728
H        -4.69567754667684   -0.46562313705381   -0.11017496520431
H        -3.34622604325714    2.54128092911021    2.59750166721861
H        -1.06287194663591    1.57559701034647    2.38846039700922
Ir        0.42150000000000   -0.81650000000000    0.91330000000000
H         0.87260000000000   -2.23030000000000    1.54049999999999
B         0.49648182694084    0.43264069159621   -0.76577808586715
O         0.15700549601604   -0.02764780135370   -2.02881869632192
C         0.01122273789158    1.09199090506311   -2.92121979758925
C         0.49767698760481    0.73730472373761   -4.32275681081032
H         1.51266315072223    0.35667512394388   -4.30110944419301
H         0.45443524093258    1.61646883627373   -4.96056600357238
H        -0.14480641687709   -0.03150595485665   -4.74378446979596
C        -1.49062014464389    1.40619776267703   -2.97114106812988
H        -1.70732550081637    2.21564647766034   -3.66161887570745
H        -2.02054836075363    0.51247178455658   -3.29371514623491
H        -1.84229045921722    1.66536451195853   -1.97465869882011
C         0.82963253204776    2.20392107233812   -2.19565418544689
O         0.76187099548226    1.78107330043899   -0.82254564845005
C         2.30981732434000    2.19261517867737   -2.59208044762425
H         2.71169357052482    1.19542668603873   -2.43511293488392
H         2.44813463143561    2.50683899381780   -3.62257454152281
H         2.85174070138315    2.87207588814846   -1.93912581745143
C         0.27683931425044    3.61899182027186   -2.33409494489262
H        -0.72304865037337    3.69571668063445   -1.92058451901697
H         0.92139274666412    4.30137006950047   -1.78685944287300
H         0.26227746535724    3.91351430296502   -3.38003347416182
B         1.56297734870110    0.62851821907757    1.86433345353753
O         2.91831269362624    0.58848504186289    2.11278002037122
C         3.35908293348669    1.89511493150268    2.51157095151110
C         4.52521452270295    1.79010409649244    3.48624023277759
H         4.27868610602615    1.15032775392883    4.32620489596780
H         5.37611735479913    1.35074738802400    2.97439392716826
H         4.79904473616895    2.77843972066930    3.84365665435895
C         3.80251622749803    2.59398022947373    1.22266611586724
H         4.20301628032235    3.58420324659184    1.41576408048792
H         4.56527617128581    1.98192470290641    0.74917980880305
H         2.95470868231605    2.64194101496150    0.54352690636246
C         2.05071465642956    2.51006628859751    3.09320927929599
O         1.03497508954583    1.80379508080538    2.35956879131932
C         1.89248688571616    4.01107350841697    2.88902775299562
H         1.86035896946730    4.25164778308721    1.83244185311052
H         0.96040660128816    4.33785187806994    3.34180431864655
H         2.71773794878938    4.53657688326932    3.36040626354516
C         1.84255419208156    2.15918304156399    4.57118884495193
H         1.95521191807805    1.08810340999109    4.71305211817165
H         2.54639390234300    2.68557165762083    5.20677180862421
H         0.82895577654045    2.43163169510589    4.85727454504994
B         2.27820000000000   -1.33090000000000    0.17409999999999
O         2.90099078896702   -2.54818061371535    0.40263080461141
C         4.25802503878976   -2.48300111928075   -0.07593076091620
C         5.11898218286274   -2.06408961577515    1.11820898968794
H         4.76600994958079   -1.10682988896399    1.49172297552083
H         4.99013217391716   -2.79136488910634    1.91474679935411
H         6.16958750496000   -2.00894437632990    0.85361998785214
C         4.70782997021802   -3.84631524792093   -0.58722944543142
H         4.74012402563916   -4.54108340126441    0.24676486842384
H         5.70197042025128   -3.76630026352141   -1.01684352305120
H         4.02271899550722   -4.23657744014644   -1.33163053013096
C         4.16139161337383   -1.36216606008407   -1.15431651003139
O         3.06011310773299   -0.57349035495715   -0.67073634937637
C         5.40659328234004   -0.49616530454459   -1.30475768698066
H         6.25464956571119   -1.11042762794823   -1.59282923396490
H         5.23216865070585    0.24896071190843   -2.07578950285319
H         5.62947153604784    0.01799064505610   -0.37722416723431
C         3.74080836871757   -1.90448987140008   -2.52679474358516
H         2.84949913440628   -2.51705496560454   -2.41895941937416
H         3.48930958805631   -1.06488013180063   -3.16984853934764
H         4.53811776930906   -2.47781820436873   -2.98877440685863
H        -3.38805718097436   -3.97559198714439   -2.57169915079022
H        -5.20119249490851    1.49056128910159    1.28671735064197
C         0.23589999999997   -1.68140000000005    2.96029999999998
C        -1.12507831381396   -1.93472114804928    3.13565823616310
C         0.99629884582510   -1.74115080370594    4.12353533544441
C        -1.74362851596792   -2.04246766682790    4.37861903109510
H        -1.78172230631778   -2.06193793779339    2.28958170787492
C         0.41744744678226   -1.90011695782784    5.37364453452912
Br        2.89800773282112   -1.71977231478481    4.05988094753989
C        -0.95499418687788   -2.01878752981624    5.52188029165715
O        -3.10508929355443   -2.14421003170215    4.30820937235704
H         1.04965338143096   -1.94249637718863    6.24756941705483
H        -1.37037111024824   -2.12727378156601    6.51051938420642
C        -3.89022808219865   -2.39454125275777    5.46336054210145
C        -3.99811812155330   -3.88382693826260    5.77319853021282
H        -4.87663700985217   -1.99649537310821    5.20481536006069
H        -3.50695442121411   -1.83747612980982    6.32425429132203
H        -4.37584904463319   -4.41113027598613    4.90049688155856
H        -4.68258339070889   -4.03581430550290    6.60244080895142
H        -3.02553239480464   -4.29484739916814    6.03176242978974
103
 energy: -150.412930550923 gnorm: 0.035592667979 xtb: 6.4.0 (f63f532)
N        -0.94599381295303   -2.06962217815964   -0.28274623223928
C        -2.22010640321709   -1.65508992217116   -0.39442662011406
C        -3.12412285515100   -2.33211727457769   -1.22246843398455
C        -2.70869051216467   -3.43853828694017   -1.92963423571450
C        -1.38832807452471   -3.85865870263169   -1.79612884535192
C        -0.55576824363529   -3.13892912852906   -0.96605874942922
H         0.47538565146364   -3.42890224063478   -0.82416960448659
H        -1.02184673445045   -4.72376124272435   -2.32227372859865
H        -4.14287998219036   -1.99643305984130   -1.31528318872805
C        -2.59114095160715   -0.48166475494716    0.38863757182406
N        -1.60670906248535    0.10566379852211    1.09610697229176
C        -1.89827677940650    1.16428773090314    1.83921140248100
C        -3.16693161896323    1.69676514544262    1.94549037203564
C        -4.19522204337223    1.10327292412251    1.22093061515745
C        -3.90000063532615    0.01272925996134    0.43235731156855
H        -4.68585688564221   -0.46136576782372   -0.13032307116733
H        -3.35009278679091    2.54346969506348    2.58553763400414
H        -1.06398687204150    1.59359272357946    2.37108866213815
Ir        0.42150000000000   -0.81650000000000    0.91330000000000
H         0.87260000000000   -2.23030000000000    1.54049999999999
B         0.48228400238135    0.44681162827683   -0.74502947143168
O         0.13696689066767   -0.01910922741303   -2.00367223647516
C         0.00670339958135    1.09202153504506   -2.90314237933523
C         0.50303761883126    0.72617024540808   -4.29915422722400
H         1.51512705850232    0.33886656815245   -4.26940397911531
H         0.46866757641377    1.60531952081034   -4.93672736141709
H        -0.14249727555342   -0.03919230792530   -4.72120526121213
C        -1.49354551370010    1.41567990853734   -2.97236763311276
H        -1.69288402203708    2.22327538813004   -3.66958145591901
H        -2.02453969391777    0.52393042521478   -3.29781886079073
H        -1.85514287832136    1.68166432133859   -1.98141989528136
C         0.82601715977243    2.20537468661022   -2.18056640213063
O         0.76493655966465    1.78922245891813   -0.80856151080496
C         2.30508621745964    2.19489858724945   -2.58440572437436
H         2.70853722168935    1.19958593939352   -2.42039973708561
H         2.43518039617971    2.50086969271897   -3.61793514581045
H         2.84759411345132    2.88156464011507   -1.93985144002277
C         0.27275614132053    3.62034357306093   -2.32708316584239
H        -0.72537716914579    3.70187367510106   -1.91082248943847
H         0.92099802600668    4.30651155826993   -1.78931224897016
H         0.25524839612409    3.90165489703814   -3.37624910792368
B         1.56300677511965    0.63448426222883    1.86844864804425
O         2.91785434149266    0.60144461066414    2.09583615886290
C         3.35690065335823    1.90087953744513    2.51229314397633
C         4.52134836213967    1.78856024482751    3.48989006013311
H         4.27566602324145    1.13994819651793    4.32317945903595
H         5.37453017236675    1.35736297159702    2.97509067073240
H         4.78862200346666    2.77511551355452    3.85577896516717
C         3.80649617835289    2.61371375127054    1.23200835258302
H         4.20376828194573    3.60210297373212    1.43737287174197
H         4.57295985046038    2.00668609667453    0.75818906945603
H         2.96141761354796    2.66502008373154    0.55017316819248
C         2.04896012001616    2.51238984385249    3.09908748036727
O         1.03070034735061    1.79801372808501    2.37970950087779
C         1.88796204952662    4.01335169510048    2.88947332365412
H         1.84726643566890    4.25134242270612    1.83266900848899
H         0.96047836955218    4.34178522342644    3.34999989792795
H         2.71858151876781    4.53698099102833    3.35265758063938
C         1.85466459631995    2.17325855934642    4.58286106013476
H         1.97404797855767    1.10400012775862    4.73162846028599
H         2.56165653128210    2.70952433088189    5.20617771770463
H         0.84217302101306    2.44363342774877    4.87339227820444
B         2.27820000000000   -1.33090000000000    0.17409999999999
O         2.90227065718513   -2.54046701753421    0.41584352193083
C         4.25308408364509   -2.48313707708625   -0.07287836317914
C         5.12687966663241   -2.06736734102662    1.11390662050913
H         4.77953876149731   -1.10886484519497    1.48939229961154
H         5.00186826373557   -2.79413922884984    1.91122916594340
H         6.17423022214970   -2.01667024914697    0.83787555212196
C         4.69592821646347   -3.84950021821975   -0.58513632347105
H         4.73093817059684   -4.54160887311371    0.25056792952398
H         5.68783487656803   -3.76859036092392   -1.01851789783510
H         4.00730411458661   -4.24008351514984   -1.32580148211461
C         4.15812483857936   -1.36444434315667   -1.15354965928258
O         3.05064819639086   -0.57991591095764   -0.68086778313061
C         5.40373053535543   -0.49683628639310   -1.29687649698604
H         6.25129513302508   -1.11537569323182   -1.57593864770067
H         5.23507745769073    0.24452187143863   -2.07240218667838
H         5.62019795252542    0.02027397256958   -0.36972254781391
C         3.75227020762564   -1.91053175254257   -2.52997853014546
H         2.86092765190035   -2.52358223977937   -2.42881085130858
H         3.50770495926081   -1.07223671451285   -3.17715842109343
H         4.55651654416130   -2.48315453815120   -2.97949306883325
H        -3.39367967456765   -3.96830742591989   -2.57256529306392
H        -5.20310373265625    1.48426309065888    1.27639299328826
C         0.23589999999997   -1.68140000000005    2.96029999999997
C        -1.12521856401125   -1.93253553941413    3.13742428537593
C         0.99757574102998   -1.73523189692651    4.12249463472013
C        -1.74034304532191   -2.04102766313686    4.38184149270588
H        -1.78365471673085   -2.05659504047450    2.29215205628661
C         0.42245296564705   -1.89377403239170    5.37378626662340
Br        2.90005800071592   -1.71263430919623    4.05607851406889
C        -0.94953667314260   -2.01641689993688    5.52372224221885
O        -3.10191542311275   -2.14496037730954    4.31490391845821
H         1.05625544565749   -1.93222186148919    6.24667345956854
H        -1.36324788274795   -2.12444476370981    6.51301089509288
C        -3.88271117092820   -2.39587790099541    5.47168063126021
C        -3.98487975198162   -3.88573470928538    5.78431512574588
H        -4.87139496770754   -2.00188143441517    5.21544405886017
H        -3.49947539912395   -1.83690731325320    6.33143366010346
H        -4.36363287946182   -4.41515730321840    4.91343451436366
H        -4.66615474892698   -4.03794349339313    6.61597665177525
H        -3.00996293601628   -4.29278768054630    6.04025757366463
103
 energy: -150.413839103775 gnorm: 0.035968930135 xtb: 6.4.0 (f63f532)
N        -0.93631839490008   -2.06194921747219   -0.29691408085041
C        -2.21021572959126   -1.64289346887921   -0.41028759231589
C        -3.11712194492221   -2.31716661840299   -1.23906715927152
C        -2.70829227850026   -3.42707898335055   -1.94394158427715
C        -1.38670396464282   -3.84915647178183   -1.81349966105836
C        -0.55034514083986   -3.13005429546007   -0.98552609802048
H         0.48173571381749   -3.42262944599504   -0.85127505534059
H        -1.02410471252655   -4.71588903145064   -2.33982914762155
H        -4.13431795758767   -1.97547082296257   -1.33079432763702
C        -2.58153820969850   -0.47056962604623    0.37013255908763
N        -1.60052709003616    0.11572940315928    1.08592127989885
C        -1.89597246370168    1.18158821114256    1.81921928771283
C        -3.16713044711475    1.71005839352881    1.92278355031177
C        -4.19385086637804    1.11103017002764    1.19742913303937
C        -3.89139621089095    0.02546060446284    0.40541549030244
H        -4.67229372286631   -0.44789124830450   -0.16523651690465
H        -3.35472492233803    2.55552178753820    2.56289159553031
H        -1.06461198961704    1.62071756715124    2.34914554131282
Ir        0.42150000000000   -0.81650000000000    0.91330000000000
H         0.87260000000000   -2.23030000000000    1.54049999999999
B         0.48457135558572    0.46267488793124   -0.72126433016115
O         0.11052244759209   -0.00592020808033   -1.97076611736535
C        -0.00102413418382    1.09518067470881   -2.87787034564601
C         0.50941831323231    0.70868286682410   -4.26451507345360
H         1.51627889103604    0.30793408884663   -4.21607699475935
H         0.49502540356005    1.58311192879164   -4.91016342280457
H        -0.14049448347258   -0.05308822597151   -4.68717935685339
C        -1.49824168683619    1.43339196145500   -2.97393227456475
H        -1.67546346057535    2.23813608396071   -3.68091587361105
H        -2.03215576443330    0.54454244229444   -3.30324775193539