10
 energy: -16.396115284571 gnorm: 0.079715791749 xtb: 6.4.0 (f63f532)
C         0.15801000000000    1.33412000000000    0.00827000000000
N        -1.06866000000000    0.77381000000000    0.00869000000000
N        -1.18320000000000   -0.58271000000000    0.00433000000000
C        -0.06737000000000   -1.34041000000000   -0.00296000000000
C         1.20234000000000   -0.79667000000000   -0.00674000000000
C         1.31918000000000    0.58525000000000    0.00126000000000
H         0.17399000000000    2.41762000000000    0.01450000000000
H        -0.23317000000000   -2.41169000000000   -0.00415000000000
H         2.07861000000000   -1.43440000000000   -0.01566000000000
H         2.28942000000000    1.06728000000000    0.00270000000000
10
 energy: -16.400854096760 gnorm: 0.028448708693 xtb: 6.4.0 (f63f532)
C         0.15042850645719    1.31549071218349    0.00865002485310
N        -1.05048423265473    0.75202492126578    0.00922487995590
N        -1.16177241347043   -0.56437740038907    0.00468647404570
C        -0.07195451291750   -1.32093278749821   -0.00258713822421
C         1.21277450761893   -0.79520005234950   -0.00570962425333
C         1.32913473586439    0.58204874226881    0.00108286199714
H         0.14519585156680    2.39646567573723    0.01429296632208
H        -0.25812023025331   -2.38595615679137   -0.00629404379429
H         2.08124691055220   -1.43800935491655   -0.01386666559941
H         2.29270087723647    1.07064570048938    0.00076026469731
10
 energy: -16.401350166671 gnorm: 0.003965593371 xtb: 6.4.0 (f63f532)
C         0.14585338686026    1.30887395164225    0.00866373342570
N        -1.04347303440050    0.74092435833127    0.01011758127348
N        -1.15296061290601   -0.55459317742211    0.00457942663534
C        -0.07544818702985   -1.31367990192273   -0.00317375151911
C         1.21870864411623   -0.79525442124867   -0.00557796388355
C         1.33496655209328    0.58108713383582    0.00079726528047
H         0.13339995619947    2.38958467757428    0.01434320999332
H        -0.26844532531901   -2.37714660192900   -0.00686440131826
H         2.08210641448822   -1.44241720182258   -0.01248271016457
H         2.29444220589791    1.07482118296146   -0.00016238972283
10
 energy: -16.401366674135 gnorm: 0.001540065914 xtb: 6.4.0 (f63f532)
C         0.14597827772408    1.31068812219237    0.00862243418545
N        -1.04463089254991    0.74212000985446    0.01031504364620
N        -1.15428045523915   -0.55557027598313    0.00479076804189
C        -0.07563080139432   -1.31547914800191   -0.00292750458125
C         1.21818106438613   -0.79530833969281   -0.00531204533247
C         1.33443622337463    0.58122761288452    0.00074522810056
H         0.13610154292817    2.39137443117863    0.01417447777769
H        -0.26607932319223   -2.37935601850811   -0.00760408992182
H         2.08134608624248   -1.44283028125946   -0.01216517804574
H         2.29372827772014    1.07533388733543   -0.00039913387051
10
 energy: -16.401369015199 gnorm: 0.000545552144 xtb: 6.4.0 (f63f532)
C         0.14561319400431    1.31140496810140    0.00868496539485
N        -1.04499108995673    0.74212473853289    0.01064488275220
N        -1.15462270360735   -0.55550835257623    0.00480216983954
C        -0.07612971928201   -1.31611567145188   -0.00327744177424
C         1.21804307643933   -0.79511798449826   -0.00538352236503
C         1.33425576602799    0.58106277191237    0.00070817871137
H         0.13796982916835    2.39194390676105    0.01404649303541
H        -0.26430094134908   -2.38022091452593   -0.00767424226246
H         2.08039267782243   -1.44362715947821   -0.01179242908862
H         2.29291991073276    1.07625369722280   -0.00051905424303
10
 energy: -16.401369234608 gnorm: 0.000241085679 xtb: 6.4.0 (f63f532)
C         0.14548932028834    1.31116751032931    0.00850573416109
N        -1.04489732220626    0.74202917079985    0.01055233898686
N        -1.15452023615439   -0.55542824231210    0.00495373569179
C        -0.07621513380483   -1.31585909372540   -0.00291188534199
C         1.21805321997709   -0.79501641104822   -0.00520118137881
C         1.33425300824884    0.58096280187776    0.00064293533258
H         0.13812060312211    2.39168210346483    0.01407796952006
H        -0.26409533547981   -2.37999278579275   -0.00802506082515
H         2.08018868624753   -1.44385472425084   -0.01186910733916
H         2.29277318976137    1.07650967065755   -0.00048547880727
