101
 energy: -150.950571244353 gnorm: 0.000560008867 xtb: 6.4.1 (1a32961)
N        -0.96509999999999   -2.11530000000000   -0.24090000000000
C        -2.24700000000001   -1.69840000000000   -0.36220000000000
C        -3.14040000000000   -2.36820000000001   -1.21200000000000
C        -2.70219999999997   -3.47560000000000   -1.93050000000000
C        -1.37779999999998   -3.89880000000003   -1.78759999999999
C        -0.54290000000000   -3.18669999999999   -0.93510000000001
H         0.49810000000000   -3.45630000000000   -0.78940000000000
H        -0.99570000000001   -4.76030000000000   -2.32770000000000
H        -4.16500000000000   -2.02890000000000   -1.31830000000000
C        -2.62130000000002   -0.50950000000000    0.44100000000001
N        -1.62600000000000    0.07330000000000    1.16020000000001
C        -1.89679999999994    1.15239999999999    1.91690000000000
C        -3.17230000000000    1.70329999999999    1.99650000000001
C        -4.20510000000000    1.11740000000001    1.26270000000001
C        -3.92609999999998    0.00250000000001    0.47820000000000
H        -4.71960000000000   -0.46420000000000   -0.09520000000000
H        -3.34630000000000    2.57510000000000    2.62070000000000
H        -1.04450000000000    1.57420000000000    2.43690000000000
Ir        0.42150000000000   -0.81650000000000    0.91330000000000
H         0.87260000000000   -2.23030000000000    1.54050000000000
B         0.50670000000000    0.41560000000000   -0.81540000000000
O         0.19500000000000   -0.04700000000001   -2.09150000000000
C         0.00650000000000    1.10040000000000   -2.95430000000000
C         0.49020000000000    0.74740000000000   -4.35780000000000
H         1.51610000000000    0.37380000000000   -4.33700000000000
H         0.44730000000000    1.62240000000000   -5.01670000000000
H        -0.14740000000000   -0.03390000000000   -4.78430000000000
C        -1.50120000000000    1.39560000000000   -2.96670000000000
H        -1.75370000000000    2.21460000000000   -3.64850000000000
H        -2.03200000000000    0.49450000000001   -3.28930000000000
H        -1.85170000000000    1.65210000000000   -1.96220000000000
C         0.84230000000000    2.20670000000000   -2.22040000000001
O         0.75200000000000    1.78259999999999   -0.83690000000000
C         2.32930000000000    2.18620000000000   -2.59900000000001
H         2.74130000000000    1.18500000000000   -2.45750000000000
H         2.48870000000000    2.51300000000000   -3.63180000000000
H         2.87200000000000    2.86270000000000   -1.93200000000000
C         0.28440000000001    3.62290000000000   -2.33659999999999
H        -0.72650000000000    3.69040000000000   -1.92910000000000
H         0.92130000000000    4.31480000000000   -1.77610000000000
H         0.26430000000000    3.94810000000000   -3.38320000000000
B         1.56300000000000    0.60960000000000    1.84840000000000
O         2.92780000000000    0.55230000000000    2.15020000000000
C         3.36330000000000    1.88660000000000    2.50260000000000
C         4.53140000000000    1.78590000000001    3.47740000000000
H         4.27910000000000    1.16090000000000    4.33690000000000
H         5.39390000000000    1.33790000000000    2.97340000000000
H         4.82390000000000    2.77870000000000    3.83820000000000
C         3.79700000000000    2.56850000000000    1.19670000000000
H         4.20020000000000    3.57090000000000    1.37680000000001
H         4.56740000000000    1.95560000000000    0.72110000000000
H         2.95240000000000    2.63260000000000    0.50540000000000
C         2.05040000000000    2.50090000000000    3.09320000000000
O         1.03750000000000    1.81620000000000    2.31909999999999
C         1.89100000000000    4.00450000000000    2.88650000000000
H         1.87290000000000    4.25440000000000    1.82410000000001
H         0.94940000000000    4.34260000000000    3.33170000000000
H         2.71080000000000    4.55150000000000    3.36630000000000
C         1.82470000000000    2.13200000000000    4.56520000000000
H         1.92610000000000    1.05330000000000    4.71320000000000
H         2.52610000000000    2.65280000000000    5.22540000000000
H         0.80630000000000    2.41580000000000    4.84900000000000
B         2.27820000000000   -1.33090000000000    0.17410000000000
O         2.89460000000000   -2.57740000000000    0.38450000000000
C         4.26930000000000   -2.48200000000000   -0.07209999999999
C         5.10900000000000   -2.05380000000000    1.14010000000000
H         4.76350000000000   -1.08740000000000    1.51750000000000
H         4.98050000000000   -2.79470000000000    1.93590000000000
H         6.17420000000000   -1.99290000000000    0.89300000000000
C         4.71950000000000   -3.84660000000000   -0.58470000000001
H         4.75280000000000   -4.56130000000000    0.24420000000000
H         5.72330000000000   -3.78370000000000   -1.02009999999999
H         4.03500000000001   -4.23600000000000   -1.34169999999999
C         4.16440000000000   -1.36220000000000   -1.16300000000000
O         3.08520000000000   -0.55030000000000   -0.65400000000000
C         5.40720000000000   -0.48870000000000   -1.31550000000000
H         6.27320000000000   -1.09010000000000   -1.61530000000000
H         5.23300000000000    0.26930000000000   -2.08590000000000
H         5.64270000000000    0.02650000000000   -0.38240000000000
C         3.71799999999999   -1.89830000000000   -2.53110000000001
H         2.82530000000000   -2.52160000000000   -2.42740000000000
H         3.46090000000000   -1.05250000000000   -3.17550000000000
H         4.50570000000000   -2.48290000000000   -3.01790000000000
H        -3.38499999999999   -4.00130000000000   -2.59310000000000
H        -5.21400000000000    1.52080000000000    1.29960000000000
C         0.23590000000001   -1.68140000000000    2.96030000000000
C        -0.94394716392788   -2.08308048433479    3.53277123357106
C         1.23537376517882   -1.63752753065845    3.96765808908734
S        -0.90683523875062   -2.27232231984350    5.24045789118178
Cl       -2.41647306813724   -2.48091036075731    2.74560724900406
C         0.79010273857126   -1.92613504127017    5.23870267255317
H         2.25757201317121   -1.39447239337446    3.72725230423493
C         1.51244327833618   -2.03147576965148    6.49653313919231
O         0.93689554012193   -2.02357758030712    7.57568028581019
C         3.01049048308052   -2.24833645733386    6.38471770686070
C         3.27660714405555   -3.67214682883749    5.90290656585264
H         3.45023268275684   -2.10075860955719    7.37368129619873
H         3.43957654701127   -1.53118618763882    5.68237332774185
H         2.81765687129120   -4.39282951105649    6.58107852597653
H         4.34916757406916   -3.86085391928525    5.87241993094084
H         2.86326341080668   -3.82316650838488    4.90549656924707
