102
 energy: -151.611219670113 gnorm: 0.093475686203 xtb: 6.4.1 (1a32961)
N        -0.96510000000000   -2.11530000000000   -0.24090000000000
C        -2.24700000000000   -1.69840000000000   -0.36220000000000
C        -3.14040000000000   -2.36820000000000   -1.21200000000000
C        -2.70220000000000   -3.47560000000000   -1.93050000000000
C        -1.37780000000000   -3.89880000000000   -1.78760000000000
C        -0.54290000000000   -3.18670000000000   -0.93510000000000
H         0.49810000000000   -3.45630000000000   -0.78940000000000
H        -0.99570000000000   -4.76030000000000   -2.32770000000000
H        -4.16500000000000   -2.02890000000000   -1.31830000000000
C        -2.62130000000000   -0.50950000000000    0.44100000000000
N        -1.62600000000000    0.07330000000000    1.16020000000000
C        -1.89680000000000    1.15240000000000    1.91690000000000
C        -3.17230000000000    1.70330000000000    1.99650000000000
C        -4.20510000000000    1.11740000000000    1.26270000000000
C        -3.92610000000000    0.00250000000000    0.47820000000000
H        -4.71960000000000   -0.46420000000000   -0.09520000000000
H        -3.34630000000000    2.57510000000000    2.62070000000000
H        -1.04450000000000    1.57420000000000    2.43690000000000
Ir        0.42150000000000   -0.81650000000000    0.91330000000000
H         0.87260000000000   -2.23030000000000    1.54050000000000
B         0.50670000000000    0.41560000000000   -0.81540000000000
O         0.19500000000000   -0.04700000000000   -2.09150000000000
C         0.00650000000000    1.10040000000000   -2.95430000000000
C         0.49020000000000    0.74740000000000   -4.35780000000000
H         1.51610000000000    0.37380000000000   -4.33700000000000
H         0.44730000000000    1.62240000000000   -5.01670000000000
H        -0.14740000000000   -0.03390000000000   -4.78430000000000
C        -1.50120000000000    1.39560000000000   -2.96670000000000
H        -1.75370000000000    2.21460000000000   -3.64850000000000
H        -2.03200000000000    0.49450000000000   -3.28930000000000
H        -1.85170000000000    1.65210000000000   -1.96220000000000
C         0.84230000000000    2.20670000000000   -2.22040000000000
O         0.75200000000000    1.78260000000000   -0.83690000000000
C         2.32930000000000    2.18620000000000   -2.59900000000000
H         2.74130000000000    1.18500000000000   -2.45750000000000
H         2.48870000000000    2.51300000000000   -3.63180000000000
H         2.87200000000000    2.86270000000000   -1.93200000000000
C         0.28440000000000    3.62290000000000   -2.33660000000000
H        -0.72650000000000    3.69040000000000   -1.92910000000000
H         0.92130000000000    4.31480000000000   -1.77610000000000
H         0.26430000000000    3.94810000000000   -3.38320000000000
B         1.56300000000000    0.60960000000000    1.84840000000000
O         2.92780000000000    0.55230000000000    2.15020000000000
C         3.36330000000000    1.88660000000000    2.50260000000000
C         4.53140000000000    1.78590000000000    3.47740000000000
H         4.27910000000000    1.16090000000000    4.33690000000000
H         5.39390000000000    1.33790000000000    2.97340000000000
H         4.82390000000000    2.77870000000000    3.83820000000000
C         3.79700000000000    2.56850000000000    1.19670000000000
H         4.20020000000000    3.57090000000000    1.37680000000000
H         4.56740000000000    1.95560000000000    0.72110000000000
H         2.95240000000000    2.63260000000000    0.50540000000000
C         2.05040000000000    2.50090000000000    3.09320000000000
O         1.03750000000000    1.81620000000000    2.31910000000000
C         1.89100000000000    4.00450000000000    2.88650000000000
H         1.87290000000000    4.25440000000000    1.82410000000000
H         0.94940000000000    4.34260000000000    3.33170000000000
H         2.71080000000000    4.55150000000000    3.36630000000000
C         1.82470000000000    2.13200000000000    4.56520000000000
H         1.92610000000000    1.05330000000000    4.71320000000000
H         2.52610000000000    2.65280000000000    5.22540000000000
H         0.80630000000000    2.41580000000000    4.84900000000000
B         2.27820000000000   -1.33090000000000    0.17410000000000
O         2.89460000000000   -2.57740000000000    0.38450000000000
C         4.26930000000000   -2.48200000000000   -0.07210000000000
C         5.10900000000000   -2.05380000000000    1.14010000000000
H         4.76350000000000   -1.08740000000000    1.51750000000000
H         4.98050000000000   -2.79470000000000    1.93590000000000
H         6.17420000000000   -1.99290000000000    0.89300000000000
C         4.71950000000000   -3.84660000000000   -0.58470000000000
H         4.75280000000000   -4.56130000000000    0.24420000000000
H         5.72330000000000   -3.78370000000000   -1.02010000000000
H         4.03500000000000   -4.23600000000000   -1.34170000000000
C         4.16440000000000   -1.36220000000000   -1.16300000000000
O         3.08520000000000   -0.55030000000000   -0.65400000000000
C         5.40720000000000   -0.48870000000000   -1.31550000000000
H         6.27320000000000   -1.09010000000000   -1.61530000000000
H         5.23300000000000    0.26930000000000   -2.08590000000000
H         5.64270000000000    0.02650000000000   -0.38240000000000
C         3.71800000000000   -1.89830000000000   -2.53110000000000
H         2.82530000000000   -2.52160000000000   -2.42740000000000
H         3.46090000000000   -1.05250000000000   -3.17550000000000
H         4.50570000000000   -2.48290000000000   -3.01790000000000
H        -3.38500000000000   -4.00130000000000   -2.59310000000000
H        -5.21400000000000    1.52080000000000    1.29960000000000
C         0.23590000000000   -1.68140000000000    2.96030000000000
C        -0.92262139393089   -2.07388382811362    3.59903986227143
C         1.26358764218889   -1.89193766730056    4.01847809532917
N        -0.71507192002254   -2.37589288593881    4.92603377829826
C        -2.33011715380723   -2.30038046791919    3.18982448977496
C         2.64013939786930   -1.86956786884117    4.34467847371697
C         0.60569240726160   -2.34204124867504    5.20059030363880
H        -1.39176534481866   -2.69218375868980    5.60060982199295
H        -2.66324922687149   -3.22713382718025    3.66209842259383
H        -2.42877795532094   -2.39355379343082    2.11373169764099
H        -2.95992633009709   -1.48764870795246    3.55698940189175
Cl        3.97295546878387   -1.23286815990285    3.50586248064488
C         3.16539400215103   -2.36023598395523    5.54236325988729
N         1.03100213887411   -2.73101931378687    6.40304891555867
C         2.34944847362733   -2.77870188107031    6.56594774766491
H         4.24039351063456   -2.34714524747045    5.66238089453124
H         2.75660073719327   -3.12226086739489    7.50897844319032
102
 energy: -151.628297663718 gnorm: 0.061243123548 xtb: 6.4.1 (1a32961)
N        -0.96306862158351   -2.10255951367753   -0.24916809323818
C        -2.24059837776743   -1.68812822042701   -0.36749420125426
C        -3.13509042871875   -2.36455259627422   -1.20660737125409
C        -2.70389882018141   -3.46861832623159   -1.91931574204998
C        -1.38332281375111   -3.88712672754343   -1.77942325935643
C        -0.55415195435228   -3.17197026272797   -0.93677085080379
H         0.48054039429391   -3.45092585080103   -0.78762917340395
H        -1.00573586208351   -4.74726742573088   -2.31463256666388
H        -4.15645214689332   -2.03097706751642   -1.31030100633442
C        -2.61209875114523   -0.50698681936443    0.43060908542642
N        -1.62004877165227    0.07231757173330    1.14438044653175
C        -1.89856903878516    1.14050541584469    1.89643216706431
C        -3.16630308865702    1.68905941013257    1.98704134008245
C        -4.19783642209785    1.10526025148405    1.25960687142332
C        -3.91657212623595   -0.00022287910908    0.47659425920394
H        -4.70943644198293   -0.46551407951017   -0.08909768394259
H        -3.34091299838846    2.55328257472238    2.61346628354326
H        -1.05510750526577    1.55903313087058    2.42578430691193
Ir        0.42150000000000   -0.81650000000000    0.91330000000000
H         0.87260000000000   -2.23030000000000    1.54050000000000
B         0.50093372469452    0.41662244086543   -0.79650655076044
O         0.17867701733005   -0.03948427302035   -2.06874456718360
C         0.00812904209891    1.09423741066927   -2.94596906948473
C         0.48568311566359    0.74568213492976   -4.35219706359412
H         1.50552065766197    0.37053324754325   -4.33191858652940
H         0.43973124431794    1.62035081435802   -5.00187080819481
H        -0.15189869925111   -0.03168280427609   -4.77245364124689
C        -1.49754813553254    1.39454463738570   -2.96759299866619
H        -1.74074015011020    2.20774932431115   -3.65003605735574
H        -2.02769830663288    0.49705538639887   -3.28706003441185
H        -1.84360362345412    1.64878065654321   -1.96530394877977
C         0.83146080193129    2.20403392825774   -2.21492707380788
O         0.75556540386832    1.77480280308358   -0.83841178767561
C         2.31503433824182    2.18905047566511   -2.60208002450364
H         2.72184981816051    1.19038367096320   -2.45413841901481
H         2.46842687520688    2.51173349285134   -3.63130716511824
H         2.85755961995338    2.86307465818794   -1.93969996101592
C         0.27828090163931    3.62042538910574   -2.33959076891303
H        -0.72552708110708    3.68825530061659   -1.92779386870400
H         0.91657399844665    4.30513732446462   -1.78214423519050
H         0.25992767742878    3.93554172768605   -3.38316673657595
B         1.54583818501273    0.64313868869362    1.83747887998383
O         2.90947145309662    0.61043292197496    2.08219636736270
C         3.35642736983678    1.91343719594879    2.49516860120818
C         4.52847161959269    1.81127527898321    3.46858728565372
H         4.27947310971721    1.19243909140148    4.32634769329070
H         5.38330974923352    1.35697451639274    2.96742697872480
H         4.81915736959562    2.79931905055340    3.82294871829387
C         3.79856169377945    2.59188596541931    1.19657068787375
H         4.20378868141480    3.58509452633478    1.37963391983250
H         4.56120225475363    1.97191472358892    0.72605655689623
H         2.95134554895706    2.64103295641669    0.51373171493753
C         2.04538757855197    2.51631518604753    3.08665310737801
O         1.02455860902769    1.82868307875949    2.33611555173787
C         1.88956603362774    4.01713620626074    2.88847409836730
H         1.86607924962085    4.25817524782230    1.82926614685189
H         0.95210897204632    4.34578879684693    3.33488011468758
H         2.71213863936494    4.55058454550142    3.36413406340362
C         1.83054302028164    2.14245072287584    4.55885645640545
H         1.93465512718462    1.06642682843399    4.69730710696492
H         2.53226704075623    2.66040848236948    5.21023860203920
H         0.81637492159103    2.41829114973929    4.84773642741839
B         2.27819999999998   -1.33089999999996    0.17410000000002
O         2.90770709247553   -2.56103361909812    0.38615360701074
C         4.26735399687192   -2.49154996194439   -0.10657026220028
C         5.15511966515287   -2.07223990057999    1.06143565371309
H         4.81857885257989   -1.09913586041704    1.40774777647985
H         5.02068471402323   -2.79645275197014    1.86629460616331
H         6.21144267310739   -2.02186891985914    0.81411151898012
C         4.71804433835828   -3.85657889019983   -0.60368571984669
H         4.75072495933479   -4.55224676539572    0.23453008828004
H         5.71661727770368   -3.78419273127770   -1.03372245083273
H         4.03046943980854   -4.24699836855989   -1.34806699891624
C         4.16173988435489   -1.35838040516461   -1.17115014983934
O         3.07248657973638   -0.56294778911198   -0.66474979946487
C         5.40634978746490   -0.48993083997307   -1.32325362451147
H         6.26379466746611   -1.09402610360973   -1.61911481382978
H         5.22950641767016    0.26447145433671   -2.08877420727831
H         5.63517049639562    0.02176567647161   -0.39224071958185
C         3.72096911939806   -1.89783976220477   -2.53645449258194
H         2.83033739146876   -2.51510762923790   -2.42412774171295
H         3.46256292567245   -1.05602684303978   -3.17727668626045
H         4.51072085202163   -2.47582538799208   -3.01380616845973
H        -3.38271386624928   -3.99484209171513   -2.57713602405520
H        -5.20214090573765    1.50643969886811    1.30121476418888
C         0.23589999999990   -1.68140000000000    2.96029999999999
C        -0.93181535657635   -2.07213784765375    3.58555753457601
C         1.25884340453154   -1.89276098234262    4.03598727109485
N        -0.73900666767657   -2.37732145938423    4.91589897277220
C        -2.34012039695629   -2.29431829675115    3.16188925680785
C         2.63067359921966   -1.86806848092557    4.36512670589382
C         0.57448470639852   -2.34762136001578    5.21026730599060
H        -1.42664963765196   -2.69102617804196    5.57969569883537
H        -2.68394969411344   -3.21922673496819    3.62827683222572
H        -2.43425981646147   -2.38637279169832    2.08905485064378
H        -2.97340928578789   -1.48312440279287    3.52279773224917
Cl        3.95193898811142   -1.22504642276530    3.51558398878551
C         3.13578279321049   -2.36495816010474    5.57004639641497
N         0.99127568508417   -2.73814752604210    6.41033187866930
C         2.30384413260779   -2.78458815357371    6.57968796221286
H         4.20811214351233   -2.35814821177966    5.70119145017202
H         2.69943442725772   -3.13095290315018    7.52340900998026
102
 energy: -151.637995706558 gnorm: 0.050827697347 xtb: 6.4.1 (1a32961)
N        -0.95709522641613   -2.09264594220072   -0.25691868852476
C        -2.23140295183061   -1.67752139048495   -0.37497077695406
C        -3.13034971816125   -2.35834347631715   -1.20410078269787
C        -2.70748867654306   -3.46240930091131   -1.91175364309282
C        -1.38775274341041   -3.87948481858510   -1.77447654504710
C        -0.56092330204619   -3.16187444347495   -0.93882693819774
H         0.47013552860755   -3.44852906782651   -0.79108603794871
H        -1.01562845122614   -4.74059761785099   -2.30415837673123
H        -4.15056592412257   -2.02871449658402   -1.30038581682172
C        -2.59935373977103   -0.50360127582781    0.41674048339842
N        -1.60974748869165    0.07091904759986    1.12974619747106
C        -1.89577755918320    1.12922949245448    1.88017634099992
C        -3.15884041536013    1.67648317904228    1.97903276550535
C        -4.19098837243498    1.09361911588200    1.25393138768785
C        -3.90549291424218   -0.00289414118740    0.46898582408354
H        -4.69748500866540   -0.47103768551497   -0.08968814730254
H        -3.33460329963778    2.53286989949943    2.60952912435909
H        -1.05984120350022    1.54965213051474    2.41567292104580
Ir        0.42150000000001   -0.81650000000000    0.91330000000000
H         0.87260000000000   -2.23030000000000    1.54050000000000
B         0.49734225606644    0.42107421754043   -0.77802174650239
O         0.15949096099528   -0.03437092002524   -2.04455778293511
C         0.00307385273541    1.08656725485748   -2.93153379100368
C         0.48065660449319    0.73760810682445   -4.33813055307780
H         1.49695829629521    0.36121679442756   -4.32158465176262
H         0.43081913783344    1.61533810969113   -4.97674758471261
H        -0.15979294243143   -0.03454217607218   -4.75523381900329
C        -1.50135821252300    1.39348216463142   -2.96688277788868
H        -1.73039188997728    2.20265237394433   -3.65253727015841
H        -2.02995009104091    0.49786619084514   -3.28545203676890
H        -1.84517314973140    1.64850020776764   -1.96681202087006
C         0.82098190530232    2.19911474019295   -2.20625932306603
O         0.75863593704893    1.77157836255982   -0.83595003862345
C         2.30155326712552    2.19093677946241   -2.60498673149577
H         2.70517618048692    1.19403123503441   -2.45111522813043
H         2.44277077972543    2.50830892795747   -3.63366473905417
H         2.84341116894441    2.86738630127653   -1.94907818748039
C         0.26658309134335    3.61467575904338   -2.33869237512589
H        -0.73249320748707    3.68658794365524   -1.92348993152284
H         0.90921183097455    4.29600501325863   -1.78848360028171
H         0.24976280767396    3.91520881201793   -3.38234199169175
B         1.53905999835623    0.66965960039186    1.83242796613922
O         2.89841669063786    0.65512322008632    2.02574013610972
C         3.34790721985707    1.93754918423935    2.47703281964639
C         4.51885627107697    1.84024665549864    3.45501251411079
H         4.27528160323514    1.23494931254895    4.31989723218690
H         5.36852218864039    1.38044675532242    2.95681512227768
H         4.80371101681301    2.83189051594646    3.79117272861395
C         3.80063509308047    2.63518735876523    1.19284260023216
H         4.20781883888020    3.62246545559326    1.37678062370330
H         4.55849776744762    2.00886743777111    0.72843878882185
H         2.95359999244601    2.67269820825710    0.51297010129181
C         2.04103895661737    2.53280072967386    3.07893221771097
O         1.01641481986432    1.83681969331495    2.35237278709491
C         1.88377807459500    4.03346625079916    2.88735065747434
H         1.85422416502721    4.27139261748491    1.83058664064932
H         0.95167602305508    4.35726167614722    3.33932888680260
H         2.71076691154906    4.55494928172934    3.35853119852944
C         1.84234607555749    2.15837617805996    4.55453557313269
H         1.95153081897232    1.08351756852024    4.68171889259584
H         2.54569223030873    2.67663370790157    5.19678218698992
H         0.83006028136986    2.42533903621679    4.84811466184770
B         2.27819999999999   -1.33089999999995    0.17410000000003
O         2.92485198019701   -2.54276988204176    0.39705704146956
C         4.26742181779886   -2.49225902666870   -0.13090663426108
C         5.19184210755883   -2.08039077351141    1.00936531865100
H         4.88409323441277   -1.09466508959023    1.33888152420378
H         5.06243711867894   -2.78462876084185    1.82831609529485
H         6.23697012192002   -2.05774286057826    0.72834280602193
C         4.70258836038269   -3.86153092150345   -0.63300760667437
H         4.73855189531498   -4.54217339290722    0.21294935121710
H         5.69760299686384   -3.78528034636840   -1.05946766302113
H         4.01541011516617   -4.26098950286182   -1.36805474751881
C         4.15133689297335   -1.35931035613755   -1.18804756753342
O         3.05523519787477   -0.57724728936673   -0.68360218733922
C         5.39600144805972   -0.48970285636706   -1.33834411572453
H         6.24663945359973   -1.09874447640455   -1.62788014174692
H         5.21946788165605    0.25974491625854   -2.10349420296892
H         5.62121904048718    0.02334087310804   -0.41062483759385
C         3.71963425460166   -1.89696763452429   -2.55586497369896
H         2.83201277124012   -2.51178270379818   -2.43474492004630
H         3.46120052441088   -1.05898044510284   -3.19671600559294
H         4.51466491840218   -2.47075685814860   -3.01955675324501
H        -3.38680123858787   -3.99247183425997   -2.56019500095670
H        -5.19392943428114    1.48836648831010    1.30401127823123
C         0.23589999999985   -1.68139999999999    2.96029999999998
C        -0.94540307462977   -2.06923724166902    3.56186336785060
C         1.24628238712921   -1.90162782847301    4.05069611783129
N        -0.77521041955319   -2.37766171872789    4.89635174333529
C        -2.35190109978150   -2.28420271036581    3.11529698557673
C         2.61516006015632   -1.87493967871611    4.36748809446437
C         0.52990553360786   -2.35149464901413    5.21562050797138
H        -1.47943027719900   -2.68685688724078    5.54526917361370
H        -2.71076830063513   -3.20711492122632    3.57409051155107
H        -2.43458377617638   -2.37520870336828    2.04348643044445
H        -2.98834189425735   -1.47159584939038    3.46642484591948
Cl        3.91035267432670   -1.27877698518078    3.43469303930574
C         3.10076653908012   -2.36127772657488    5.58798293839754
N         0.94047579258770   -2.73964784898279    6.41343393680269
C         2.24941564010483   -2.77881905502367    6.58676247466065
H         4.16977981435519   -2.36476661124424    5.73419688988610
H         2.62979091005295   -3.13312446826123    7.53311249644669
102
 energy: -151.645590617434 gnorm: 0.048461914743 xtb: 6.4.1 (1a32961)
N        -0.94769792458520   -2.08643248598176   -0.26745388638161
C        -2.22160815212867   -1.66879708392294   -0.38624608995195
C        -3.12685712102707   -2.35286099802890   -1.20672224810609
C        -2.71149562444609   -3.46165123168382   -1.90925086755576
C        -1.38996999511224   -3.87953357536092   -1.77517549132818
C        -0.55968687966150   -3.15881759407648   -0.94557750913320
H         0.47013781490413   -3.45172277614785   -0.80007683261005
H        -1.02278142715700   -4.74425478610664   -2.30020743376254
H        -4.14744272949315   -2.02277076869401   -1.29537622200422
C        -2.58670332344580   -0.49828672762189    0.40128072137790
N        -1.59740321577511    0.07314013039088    1.11733824336160
C        -1.88867367930901    1.12633378957581    1.87028116560316
C        -3.15255789475607    1.66990973013587    1.97464101641418
C        -4.18618307101271    1.08590727502650    1.24893105648011
C        -3.89566599540063   -0.00324835668284    0.45756124490346
H        -4.68618860039504   -0.47560494059718   -0.09913878419113
H        -3.33033591920557    2.51982519244324    2.61125674261297
H        -1.05769574199070    1.54925642540686    2.41137563975482
Ir        0.42150000000001   -0.81650000000001    0.91330000000000
H         0.87260000000000   -2.23030000000000    1.54049999999999
B         0.49347770145576    0.42840382275264   -0.76314325927797
O         0.14061025051393   -0.03275134617898   -2.02381718012575
C        -0.00651154538312    1.07929124638024   -2.91581422575478
C         0.47454826774286    0.72559996087177   -4.32103976984158
H         1.48984599309359    0.34721067129922   -4.30627145718094
H         0.42445452217408    1.60665930582183   -4.95407211056705
H        -0.16940613599075   -0.04320861598702   -4.73809184492155
C        -1.51021534816162    1.39313931932518   -2.96454528639659
H        -1.72586844036446    2.20060352200912   -3.65538463201046
H        -2.03843654404450    0.49811613570472   -3.28427423746448
H        -1.85768654962629    1.65252782577065   -1.96731765941252
C         0.81182062692939    2.19519334852196   -2.19676194621708
O         0.76166043405153    1.77432439799923   -0.82901754409537
C         2.28999819316614    2.19196052720677   -2.60770254585433
H         2.69545349656677    1.19674370982167   -2.44921847951072
H         2.41823227295806    2.50321544658897   -3.63922942380193
H         2.83242829786544    2.87529119350816   -1.95994851270782
C         0.25334087969977    3.60963349726094   -2.33551964853224
H        -0.74373922501756    3.68555341873477   -1.91685340627847
H         0.90039199068355    4.29365244006381   -1.79440290064014
H         0.23402759430939    3.89709368809481   -3.38220755819870
B         1.53734657636312    0.69065346502730    1.82479178451223
O         2.89493970368371    0.69387332817267    1.98010766070166
C         3.33920172840979    1.96500890160281    2.45530721438150
C         4.50863298206173    1.85631671395808    3.43542527122778
H         4.26523457853789    1.25221039142562    4.30138934344533
H         5.35792535978822    1.39794898753780    2.93682243757512
H         4.78931202850734    2.85221721781088    3.76304785848603
C         3.80060373081854    2.68673842155025    1.18430839499809
H         4.20698180683833    3.67117708003263    1.37844498380468
H         4.56121272914345    2.06279030573990    0.72115614594209
H         2.95749938570023    2.72682087964421    0.50035234910483
C         2.03301622231477    2.54910590456251    3.07229421849233
O         1.00636315495054    1.84272242398713    2.36460618073988
C         1.87224543678974    4.05125766920355    2.88410345075759
H         1.83537950500165    4.29250887376993    1.82842450251653
H         0.94536571543636    4.37456203683917    3.34597257651364
H         2.70518102881264    4.56642403078990    3.35058378153328
C         1.85504458971697    2.17617630957341    4.55258763612404
H         1.97195191237458    1.10141360078795    4.67313747721150
H         2.56153171980857    2.69922763274117    5.18621344872193
H         0.84327260952717    2.43573830300486    4.85341083097231
B         2.27819999999996   -1.33089999999988    0.17410000000006
O         2.94248344963139   -2.52825503577130    0.41313069289188
C         4.26682660541599   -2.49008329898576   -0.15623180667726
C         5.24565627511970   -2.09134738617126    0.94949308337973
H         4.97872255315749   -1.09521443052349    1.28806105688414
H         5.13580753994893   -2.79035757613657    1.77270468761600
H         6.27908976205350   -2.10067538352603    0.61537170614888
C         4.68073884119716   -3.86664845119533   -0.66589135448272
H         4.72242450743609   -4.54124313245835    0.18447032916308
H         5.67204209911825   -3.79535225408506   -1.10095254116815
H         3.98626651465921   -4.26913411641650   -1.39182881630235
C         4.13558846230797   -1.35762740060291   -1.21212523532442
O         3.03366511946823   -0.58621339974231   -0.70906630728416
C         5.37917822015552   -0.48330390734463   -1.36224812800520
H         6.22822321589593   -1.09733051242241   -1.64453742062238
H         5.20511678297459    0.26106283140193   -2.13186945616632
H         5.60264937871280    0.03473854992390   -0.43718092791217
C         3.71379170976686   -1.89861947316120   -2.58200771267912
H         2.82803027632341   -2.51501065816850   -2.46046892505147
H         3.45786945747355   -1.06248930325902   -3.22529255558947
H         4.51568032260535   -2.47005447705542   -3.03503682665047
H        -3.39517279112323   -3.99629099963423   -2.54837121280369
H        -5.19112342050180    1.47296466318519    1.30711620022195
C         0.23589999999969   -1.68139999999999    2.96029999999997
C        -0.96238911869040   -2.06422124135623    3.53268894228635
C         1.21748100247074   -1.90105904774203    4.07008691049857
N        -0.82172719469206   -2.37706211921084    4.87160343030587
C        -2.36276390025200   -2.27189100069610    3.05733873093134
C         2.58148468057556   -1.87764670724676    4.37814099074415
C         0.47460461824259   -2.35128792111451    5.21983405364321
H        -1.54532669414785   -2.68306073823770    5.50163440143227
H        -2.73796873962367   -3.19239270812711    3.50861879616365
H        -2.42606647278476   -2.36419181079474    1.98417875975171
H        -3.00241314589055   -1.45490922545640    3.39387161977168
Cl        3.84316331177850   -1.29753939830467    3.38328135016888
C         3.05752445523653   -2.34552081167915    5.60779379922597
N         0.88219949768207   -2.74178670391293    6.41576684455429
C         2.19072009061721   -2.76639969698151    6.59500665019570
H         4.12406104006601   -2.35231259051047    5.76590017622878
H         2.55711888798323   -3.12630935255562    7.54549140491488
102
 energy: -151.652028782489 gnorm: 0.045032272496 xtb: 6.4.1 (1a32961)
N        -0.93741363117321   -2.08266899352430   -0.28075864350232
C        -2.21146850441330   -1.66080138515980   -0.40196931080188
C        -3.12209053119605   -2.34785218029872   -1.21502133983914
C        -2.71350839874914   -3.46384006099694   -1.91048017958326
C        -1.39087345812212   -3.88334591735886   -1.77907323646300
C        -0.55470106975103   -3.15982187255456   -0.95600602297612
H         0.47474347025446   -3.45703397995767   -0.81298305807517
H        -1.02819932843731   -4.75312281115359   -2.29962263246973
H        -4.14265648999146   -2.01459509575575   -1.29888552313709
C        -2.57453044024667   -0.49005313150286    0.38330886764055
N        -1.58517572330151    0.07823878280371    1.10543613608497
C        -1.88057146496406    1.12869985631945    1.86315280652935
C        -3.14725406708262    1.66654614116282    1.97084588815194
C        -4.18100957727509    1.08224053914221    1.24285983566426
C        -3.88550222044491    0.00096810427376    0.44233251091477
H        -4.67382080820853   -0.47366558329706   -0.11656609629027
H        -3.32755726838261    2.51060281965820    2.61487475809318
H        -1.05286129841099    1.55314936468047    2.40869906585075
Ir        0.42150000000001   -0.81650000000002    0.91330000000000
H         0.87260000000000   -2.23030000000000    1.54049999999999
B         0.48958612786886    0.43688005710512   -0.75040822272668
O         0.12224519614838   -0.03080494682066   -2.00514168311504
C        -0.01808735604677    1.07416205273066   -2.90175373222538
C         0.46683582117599    0.71217514164187   -4.30418353436729
H         1.48107128439723    0.32970426744427   -4.28603174056020
H         0.42167701900626    1.59307563678250   -4.93900526376873
H        -0.17965513116364   -0.05538246707530   -4.72125582548695
C        -1.52075824939665    1.39406582648956   -2.96202594660392
H        -1.72601853825085    2.20000644696370   -3.65859200251806
H        -2.05012517290788    0.49965076696205   -3.28299907033082
H        -1.87610663709583    1.65980768024829   -1.96875382761125
C         0.80304970417996    2.19418709963000   -2.18919786721691
O         0.76353508815668    1.78018536472527   -0.82125543334188
C         2.27874431266834    2.19373356030436   -2.61119887041941