96
 energy: -144.780452076246 gnorm: 0.081259793920 xtb: 6.4.1 (1a32961)
N        -0.96510000000000   -2.11530000000000   -0.24090000000000
C        -2.24700000000000   -1.69840000000000   -0.36220000000000
C        -3.14040000000000   -2.36820000000000   -1.21200000000000
C        -2.70220000000000   -3.47560000000000   -1.93050000000000
C        -1.37780000000000   -3.89880000000000   -1.78760000000000
C        -0.54290000000000   -3.18670000000000   -0.93510000000000
H         0.49810000000000   -3.45630000000000   -0.78940000000000
H        -0.99570000000000   -4.76030000000000   -2.32770000000000
H        -4.16500000000000   -2.02890000000000   -1.31830000000000
C        -2.62130000000000   -0.50950000000000    0.44100000000000
N        -1.62600000000000    0.07330000000000    1.16020000000000
C        -1.89680000000000    1.15240000000000    1.91690000000000
C        -3.17230000000000    1.70330000000000    1.99650000000000
C        -4.20510000000000    1.11740000000000    1.26270000000000
C        -3.92610000000000    0.00250000000000    0.47820000000000
H        -4.71960000000000   -0.46420000000000   -0.09520000000000
H        -3.34630000000000    2.57510000000000    2.62070000000000
H        -1.04450000000000    1.57420000000000    2.43690000000000
Ir        0.42150000000000   -0.81650000000000    0.91330000000000
H         0.87260000000000   -2.23030000000000    1.54050000000000
B         0.50670000000000    0.41560000000000   -0.81540000000000
O         0.19500000000000   -0.04700000000000   -2.09150000000000
C         0.00650000000000    1.10040000000000   -2.95430000000000
C         0.49020000000000    0.74740000000000   -4.35780000000000
H         1.51610000000000    0.37380000000000   -4.33700000000000
H         0.44730000000000    1.62240000000000   -5.01670000000000
H        -0.14740000000000   -0.03390000000000   -4.78430000000000
C        -1.50120000000000    1.39560000000000   -2.96670000000000
H        -1.75370000000000    2.21460000000000   -3.64850000000000
H        -2.03200000000000    0.49450000000000   -3.28930000000000
H        -1.85170000000000    1.65210000000000   -1.96220000000000
C         0.84230000000000    2.20670000000000   -2.22040000000000
O         0.75200000000000    1.78260000000000   -0.83690000000000
C         2.32930000000000    2.18620000000000   -2.59900000000000
H         2.74130000000000    1.18500000000000   -2.45750000000000
H         2.48870000000000    2.51300000000000   -3.63180000000000
H         2.87200000000000    2.86270000000000   -1.93200000000000
C         0.28440000000000    3.62290000000000   -2.33660000000000
H        -0.72650000000000    3.69040000000000   -1.92910000000000
H         0.92130000000000    4.31480000000000   -1.77610000000000
H         0.26430000000000    3.94810000000000   -3.38320000000000
B         1.56300000000000    0.60960000000000    1.84840000000000
O         2.92780000000000    0.55230000000000    2.15020000000000
C         3.36330000000000    1.88660000000000    2.50260000000000
C         4.53140000000000    1.78590000000000    3.47740000000000
H         4.27910000000000    1.16090000000000    4.33690000000000
H         5.39390000000000    1.33790000000000    2.97340000000000
H         4.82390000000000    2.77870000000000    3.83820000000000
C         3.79700000000000    2.56850000000000    1.19670000000000
H         4.20020000000000    3.57090000000000    1.37680000000000
H         4.56740000000000    1.95560000000000    0.72110000000000
H         2.95240000000000    2.63260000000000    0.50540000000000
C         2.05040000000000    2.50090000000000    3.09320000000000
O         1.03750000000000    1.81620000000000    2.31910000000000
C         1.89100000000000    4.00450000000000    2.88650000000000
H         1.87290000000000    4.25440000000000    1.82410000000000
H         0.94940000000000    4.34260000000000    3.33170000000000
H         2.71080000000000    4.55150000000000    3.36630000000000
C         1.82470000000000    2.13200000000000    4.56520000000000
H         1.92610000000000    1.05330000000000    4.71320000000000
H         2.52610000000000    2.65280000000000    5.22540000000000
H         0.80630000000000    2.41580000000000    4.84900000000000
B         2.27820000000000   -1.33090000000000    0.17410000000000
O         2.89460000000000   -2.57740000000000    0.38450000000000
C         4.26930000000000   -2.48200000000000   -0.07210000000000
C         5.10900000000000   -2.05380000000000    1.14010000000000
H         4.76350000000000   -1.08740000000000    1.51750000000000
H         4.98050000000000   -2.79470000000000    1.93590000000000
H         6.17420000000000   -1.99290000000000    0.89300000000000
C         4.71950000000000   -3.84660000000000   -0.58470000000000
H         4.75280000000000   -4.56130000000000    0.24420000000000
H         5.72330000000000   -3.78370000000000   -1.02010000000000
H         4.03500000000000   -4.23600000000000   -1.34170000000000
C         4.16440000000000   -1.36220000000000   -1.16300000000000
O         3.08520000000000   -0.55030000000000   -0.65400000000000
C         5.40720000000000   -0.48870000000000   -1.31550000000000
H         6.27320000000000   -1.09010000000000   -1.61530000000000
H         5.23300000000000    0.26930000000000   -2.08590000000000
H         5.64270000000000    0.02650000000000   -0.38240000000000
C         3.71800000000000   -1.89830000000000   -2.53110000000000
H         2.82530000000000   -2.52160000000000   -2.42740000000000
H         3.46090000000000   -1.05250000000000   -3.17550000000000
H         4.50570000000000   -2.48290000000000   -3.01790000000000
H        -3.38500000000000   -4.00130000000000   -2.59310000000000
H        -5.21400000000000    1.52080000000000    1.29960000000000
C         0.23590000000000   -1.68140000000000    2.96030000000000
N        -0.96439546927811   -2.08090119606264    3.40101185406381
C         1.30479101625521   -1.87466249955335    3.87180101457225
C        -1.12545258289027   -2.57824949713227    4.63807845408806
Br        3.14989094916957   -1.78070124823963    3.50737320692626
C         1.14522002225054   -2.33766826695812    5.17036577431543
C        -0.11514390875789   -2.71277381181140    5.58912652904572
C        -2.37622713369893   -3.10128159356515    5.06949995469401
H         2.01611235172072   -2.47876733400047    5.79897360991392
H        -0.27344377791343   -3.14693127638806    6.56563262383906
N        -3.28925855016055   -3.58786332069492    5.57107711303992
96
 energy: -144.791751813481 gnorm: 0.050895022522 xtb: 6.4.1 (1a32961)
N        -0.96049642954245   -2.10148395259641   -0.25382095207643
C        -2.23739820773353   -1.69151779216985   -0.36280629718448
C        -3.13272368488532   -2.36434502613166   -1.20307890287303
C        -2.70259666149677   -3.46675746302759   -1.91962131869063
C        -1.38405773554293   -3.88680597605738   -1.78083856938303
C        -0.55327558437992   -3.17103927468519   -0.93962842159563
H         0.48171284004841   -3.44979768897114   -0.79267164710664
H        -1.00698228609544   -4.74619825671358   -2.31693986305267
H        -4.15336823082591   -2.02910543658935   -1.30685725403314
C        -2.60983393768818   -0.51278543311482    0.43910101259487
N        -1.61943296815960    0.07240711734986    1.14581792800887
C        -1.89914274038458    1.13952232171205    1.89725967984747
C        -3.16727823855918    1.68698628497242    1.98806205189663
C        -4.19629031548892    1.10252472557366    1.26068712270449
C        -3.91354742670317   -0.00537156409250    0.48107180180149
H        -4.70492399435968   -0.46911857255511   -0.08761975604134
H        -3.34189026000794    2.55181717848723    2.61308078286890
H        -1.05587865797582    1.56268999067152    2.42306343947339
Ir        0.42150000000000   -0.81650000000000    0.91330000000000
H         0.87260000000000   -2.23030000000000    1.54050000000000
B         0.49564256872855    0.41912362149591   -0.79509474953063
O         0.17714095913495   -0.03858588916285   -2.06608128858512
C         0.00893844934189    1.09534296714143   -2.94460092445957
C         0.48737940269379    0.74692929362801   -4.35025648683981
H         1.50695791812621    0.37146885706304   -4.33010391261181
H         0.44146379806873    1.62224013686793   -4.99877184650232
H        -0.15072171032228   -0.02949933490712   -4.77101466815884
C        -1.49608604730848    1.39634640290262   -2.96756454744877
H        -1.73708083682527    2.20960095491953   -3.65040683520439
H        -2.02626832679986    0.49933807214922   -3.28781569881925
H        -1.84291793704508    1.65077502533389   -1.96562164157842
C         0.83194327182277    2.20498192935205   -2.21300903871528
O         0.75625074595091    1.77514891993769   -0.83572034566832
C         2.31510446336774    2.18991032442805   -2.60009420841057
H         2.72155482383443    1.19118756012574   -2.45251553438515
H         2.46703017582586    2.51273840135269   -3.62923133085641
H         2.85746698721317    2.86438581621195   -1.93832123919655
C         0.27918726201850    3.62120754022355   -2.33773420984456
H        -0.72457802632461    3.68971474456779   -1.92618632575051
H         0.91798791907238    4.30563823675319   -1.78082807160964
H         0.26128025481638    3.93534203858671   -3.38140653548162
B         1.55699847913819    0.63923431279577    1.83594798961537
O         2.91697916290771    0.59330082262025    2.10930616803439
C         3.36201358043788    1.90453744187100    2.50234953972874
C         4.53103331517881    1.79344300343306    3.47406347481170
H         4.28029452739113    1.16228780727239    4.32252783294414
H         5.38425773351890    1.34505140190447    2.96752478545611
H         4.81828174183423    2.78091050895774    3.83362443946937
C         3.79933279339232    2.58481622811599    1.20243242930837
H         4.20322199534530    3.57857189524762    1.38608027500865
H         4.56221692257582    1.96783212903107    0.72978714510871
H         2.95171813964151    2.63673878263938    0.51993878392815
C         2.05006846089373    2.51306123825484    3.08831567051290
O         1.03187536241497    1.82179625570130    2.33510809640762
C         1.89134612422754    4.01385167257690    2.88996029916797
H         1.86712788222619    4.25591285187580    1.83114849372758
H         0.95361849574278    4.34214659772774    3.33643604794584
H         2.71297800566367    4.54779374299831    3.36616709003847
C         1.83101308139908    2.14170374425671    4.56006305846063
H         1.93745534199990    1.06642846755064    4.70063550834222
H         2.53220375960964    2.66018085637919    5.21076900321543
H         0.81620502798702    2.41731277586040    4.84799014747424
B         2.27820000000000   -1.33090000000000    0.17409999999999
O         2.90950829901628   -2.55714052774036    0.39262442663066
C         4.27224273662661   -2.48352585892749   -0.09342897257691
C         5.15858222900870   -2.06039206932198    1.08045891555574
H         4.81843751279780   -1.09758065793361    1.45713152561092
H         5.04703616997046   -2.79712339490952    1.87417274410283
H         6.21009900838210   -2.00248407573527    0.81634890564920
C         4.71916931674569   -3.84889133344590   -0.59768355434939
H         4.75189518180036   -4.54781234105702    0.23724722687704
H         5.71631018701440   -3.77873537772780   -1.03048482599652
H         4.03092897573349   -4.23852119167728   -1.34275992534585
C         4.16267466627377   -1.35692679175562   -1.16630860269006
O         3.07026885805559   -0.56205983090790   -0.66263310739481
C         5.40624154825615   -0.48845620838021   -1.32079555552598
H         6.26230519906172   -1.09397028141208   -1.61681935748587
H         5.22896373880578    0.26437023184856   -2.08759359840792
H         5.63546668630511    0.02290720038040   -0.39014267196990
C         3.72265952414040   -1.89673190544846   -2.53241666238766
H         2.83206061653116   -2.51441244639241   -2.42247236830016
H         3.46470047236582   -1.05553134350592   -3.17428601206402
H         4.51294268285249   -2.47385002231016   -3.00948573723702
H        -3.38205774177764   -3.99116264023506   -2.57789143864389
H        -5.20024352122752    1.50412511210096    1.29987503473314
C         0.23590000000000   -1.68140000000001    2.96030000000000
N        -0.96990870742692   -2.07480688707024    3.38427146990380
C         1.29266633789764   -1.87067199410856    3.89621841812640
C        -1.15427722286083   -2.56692130742153    4.61756801165743
Br        3.13674176171558   -1.76408592325860    3.55564447356961
C         1.10636727040198   -2.33074210994018    5.19022263646755
C        -0.15821043175154   -2.70148771396758    5.58549892590023
C        -2.40821679396488   -3.08495312994606    5.03244150967181
H         1.96543686327347   -2.47146409410883    5.83125276818220
H        -0.33336500420728   -3.13259466838000    6.55845924742186
N        -3.32663696979409   -3.56942834004385    5.52250428234786
96
 energy: -144.797089477796 gnorm: 0.042785190174 xtb: 6.4.1 (1a32961)
N        -0.95214265581972   -2.09441279577566   -0.26163220403277
C        -2.22490174352897   -1.68694095168344   -0.36180190080855
C        -3.12561343274192   -2.35938718181767   -1.19420404315860
C        -2.70483635232500   -3.45898886391060   -1.91110467017787
C        -1.38844924924137   -3.87861644975956   -1.77784770985906
C        -0.55833484373545   -3.16092859926385   -0.94415558303585
H         0.47418234855270   -3.44570482852919   -0.80432754501555
H        -1.01759188425612   -4.73796428308705   -2.30999840494540
H        -4.14445755541989   -2.02698008528467   -1.28985222360197
C        -2.59438054131791   -0.51704696843471    0.43683770781006
N        -1.60881345840691    0.06787766918250    1.13817039696834
C        -1.89664891370348    1.12627965906263    1.88430213935026
C        -3.16082218521121    1.67098772436395    1.98337354345542
C        -4.18829420882536    1.08504204743400    1.25941136077691
C        -3.89939031131061   -0.01600294380598    0.48125824142694
H        -4.68858327684838   -0.48238721462818   -0.08179568926004
H        -3.33670537776342    2.52931181633888    2.61005072695664
H        -1.06103142201825    1.55789635372338    2.41126428132468
Ir        0.42150000000000   -0.81650000000000    0.91330000000000
H         0.87260000000000   -2.23030000000000    1.54050000000000
B         0.49113781989690    0.42539814633190   -0.77466482441110
O         0.15526923520681   -0.03163175104392   -2.03762217992880
C         0.00391118860281    1.08962068485926   -2.92733849992607
C         0.48362129046300    0.74062509126124   -4.33263363509369
H         1.49917290391578    0.36339065889685   -4.31584379889034
H         0.43446274923752    1.61958444256644   -4.96880496809313
H        -0.15760631159105   -0.02959197005198   -4.75094548461441
C        -1.49930218129764    1.39839721973728   -2.96628110694088
H        -1.72375636060163    2.20760527508347   -3.65265269181343
H        -2.02809226433449    0.50396468167488   -3.28655062338608
H        -1.84522213158823    1.65365658773123   -1.96720841739839
C         0.82134663496280    2.20160305418222   -2.20120630011857
O         0.75938777740156    1.77204601910734   -0.82968703918078
C         2.30125151732635    2.19376967182679   -2.59978611214415
H         2.70453619624516    1.19702680002642   -2.44650108265094
H         2.43952936426304    2.51125229709701   -3.62823905128942
H         2.84288611127473    2.87096672798001   -1.94522357627747
C         0.26735350020297    3.61673100603049   -2.33348846568293
H        -0.73134296358691    3.68992859508002   -1.91839778554215
H         0.91094940949836    4.29748740953517   -1.78453854835094
H         0.25108293548910    3.91521511945527   -3.37720786812672
B         1.55138816846876    0.65829240365047    1.84121249697453
O         2.90818215793863    0.62398187507066    2.06958356511407
C         3.35697255652327    1.91792364852810    2.49364778739642
C         4.52470713473391    1.79939299398767    3.46668688650956
H         4.27760210929499    1.16124849026496    4.30661567518886
H         5.37182483599796    1.35469435986130    2.95507066305436
H         4.80519354659160    2.78404631672129    3.82564504874405
C         3.80231480012807    2.61537927914203    1.20683370336389
H         4.20650571848359    3.60300373245852    1.39501945036656
H         4.56055931303052    1.99571464680016    0.73673463849801
H         2.95358458510767    2.65882571452479    0.52927622361804
C         2.04966254394678    2.52460501011011    3.08515922698599
O         1.02832374149003    1.82465938271042    2.35226374633632
C         1.88988182761228    4.02476103875434    2.89101011542788
H         1.85802996574036    4.26412659586184    1.83498039972097
H         0.95741646763746    4.34729275782156    3.34332031908236
H         2.71513119496549    4.54715215789720    3.36281787895952
C         1.84372786192212    2.15583675262686    4.56011181007780
H         1.95739260458387    1.08266918191145    4.69210504357721
H         2.54656325444535    2.67578151234568    5.20004270050032
H         0.83060903005309    2.42285886916350    4.85131854656087
B         2.27820000000001   -1.33090000000000    0.17409999999998
O         2.92527496870596   -2.53512585220251    0.41042288912409
C         4.27315659473718   -2.47749848220350   -0.10580117429715
C         5.18807640044645   -2.06468671688538    1.04883188868760
H         4.85911990381381   -1.10475812589230    1.43341777896770
H         5.09464377045909   -2.79480521827380    1.84622042226544
H         6.22588807776562   -2.01327995148021    0.74494469722536
C         4.70784352131466   -3.84553891012131   -0.61583795893297
H         4.74334464712092   -4.53287338347943    0.22348987182225
H         5.69997490129413   -3.77028973606321   -1.04754133638501
H         4.01824618914061   -4.23945775711142   -1.35244702726030
C         4.15425537606584   -1.35379162104636   -1.17527810321790
O         3.04963951428528   -0.57445836400847   -0.67855967014380
C         5.39608192583890   -0.48332865966947   -1.33050910101987
H         6.24352398890263   -1.09546771060790   -1.62076703896490
H         5.21839361573417    0.26248149939507   -2.09845372739138
H         5.62191274490919    0.02881573412499   -0.40351282242287
C         3.72530817469705   -1.89486021320441   -2.54389139019855
H         2.83746065994431   -2.51012374918346   -2.42837372230029
H         3.46781929056938   -1.05751445592451   -3.18592476386263
H         4.52150815696694   -2.46633551634757   -3.00734242076985
H        -3.38535720282497   -3.98338391630023   -2.56211457940248
H        -5.19031736656468    1.48126166820449    1.30240799634421
C         0.23590000000001   -1.68140000000003    2.96030000000000
N        -0.97773572364827   -2.06496795374328    3.35933387594938
C         1.29091466607043   -1.87397974298351    3.90497537148255
C        -1.19282786661554   -2.54907954125781    4.58664593771478
Br        3.13015085797521   -1.73132461610999    3.50211105253777
C         1.06706996436579   -2.32610221556310    5.19860278088318
C        -0.21066466131767   -2.68180874808899    5.57123081809063
C        -2.45676687715204   -3.05465804417548    4.97739791660037
H         1.90502742461607   -2.45853986561866    5.86794090691086
H        -0.41297768987618   -3.10203933113384    6.54352270236408
N        -3.38764589713679   -3.53952450645954    5.44480286157950
96
 energy: -144.801030015973 gnorm: 0.041946010987 xtb: 6.4.1 (1a32961)
N        -0.94068028359059   -2.09387368089518   -0.26841471975571
C        -2.21393560102784   -1.68644252821118   -0.36230792480985
C        -3.12157379873480   -2.35779075832394   -1.18897563430007
C        -2.70771067147623   -3.45828762878130   -1.90770793681190
C        -1.38906639195473   -3.87905060223785   -1.78140944590411
C        -0.55356602632759   -3.15976370685623   -0.95304370961540
H         0.47978912607017   -3.44745758062571   -0.82246521981953
H        -1.02321237566667   -4.74031749298851   -2.31244346503655
H        -4.14101927296252   -2.02467603211837   -1.27557458425180
C        -2.58161205736483   -0.52085693638293    0.43544782441763
N        -1.59724702746076    0.06539013628331    1.13681821052710
C        -1.88976202006521    1.12210588940750    1.88148829773779
C        -3.15620463146382    1.66198526263572    1.98465237268290
C        -4.18437376660291    1.07116167922237    1.26150755716214
C        -3.88976292551144   -0.02629949630180    0.48128625860091
H        -4.67692154937177   -0.49792530521809   -0.08012428308452
H        -3.33433208300299    2.51682331007085    2.61388100218398
H        -1.05811080552820    1.56213511321838    2.40851133593726
Ir        0.42150000000000   -0.81650000000000    0.91330000000000
H         0.87260000000000   -2.23030000000000    1.54050000000000
B         0.48641200386765    0.43431726130061   -0.75887227906972
O         0.13536552222549   -0.02792257848841   -2.01546198177031
C        -0.00646540857602    1.08593237475153   -2.90963609593775
C         0.47898296100376    0.73101082095758   -4.31235607774087
H         1.49363414031610    0.35120437451690   -4.29605291034001
H         0.43117654354502    1.61342439542064   -4.94326315964610
H        -0.16575156259430   -0.03555806933861   -4.73188742439874
C        -1.50883822873978    1.40198203788392   -2.96321637361423
H        -1.71908984297081    2.21013329562231   -3.65479124264879
H        -2.03738113177905    0.50831032907650   -3.28578664666640
H        -1.86000438049366    1.66170770380493   -1.96733588244687
C         0.81273067363650    2.19994411371845   -2.18889035219589
O         0.76107753409961    1.77642484462910   -0.81917686541664
C         2.29061430151351    2.19684243677863   -2.59838923418809
H         2.69626113644642    1.20170082907389   -2.44118222929351
H         2.41616934560525    2.50867680046298   -3.62985825378372
H         2.83269429043522    2.88098211820418   -1.95156417218594
C         0.25422625356277    3.61381652316027   -2.32603097654436
H        -0.74277901391513    3.69121532677312   -1.90747155420236
H         0.90243671292439    4.29755712190320   -1.78623887260423
H         0.23508206411220    3.89980404815799   -3.37290231302228
B         1.54760668274572    0.67697033861567    1.83355006980773
O         2.90291992660305    0.64847137525543    2.03512024850928
C         3.35098271189441    1.93299440089753    2.48011839206337
C         4.51709800645357    1.80288705901833    3.45579228176778
H         4.27111846063872    1.15726563234121    4.29050075911274
H         5.36433785384739    1.36413471380637    2.93895786106040
H         4.79429792082550    2.78586551794821    3.82110127622890
C         3.80481723094381    2.65185884704157    1.20577201718631
H         4.20782192062768    3.63720401792374    1.40529107577496
H         4.56532193357341    2.03512725134417    0.73520703820496
H         2.95849392855196    2.69907238179371    0.52587541632630
C         2.04608553113630    2.53437878923486    3.08405128911198
O         1.02112705889731    1.82933900180454    2.36402068856979
C         1.88450276688580    4.03577013785139    2.89125534991546
H         1.84474342305504    4.27824831283103    1.83599588779569
H         0.95678038364085    4.35811630183416    3.35317223226235
H         2.71531555362604    4.55326277207457    3.35806346210978
C         1.85784234337358    2.16904816663619    4.56355375807469
H         1.97949920811287    1.09633775631365    4.69210492832045
H         2.56397672265848    2.69500682672478    5.19465430678246
H         0.84504646505069    2.43009085912655    4.86063496240497
B         2.27820000000001   -1.33090000000001    0.17409999999997
O         2.94052028759625   -2.51958209622558    0.43009850868753
C         4.27405167088641   -2.47061747147375   -0.11870668313106
C         5.23074718851834   -2.06560198099816    1.00871676514239
H         4.92647917245959   -1.10031241609855    1.40112196818800
H         5.16017102222536   -2.79380605099379    1.81109673957840
H         6.25750506097844   -2.02581336316731    0.65866532395274
C         4.69168999202910   -3.84375583275881   -0.63599821346065
H         4.73368471363762   -4.52712069672949    0.20623872645106
H         5.68002015905230   -3.77053662810769   -1.07649472432141
H         3.99470381537665   -4.23880375797717   -1.36502041266659
C         4.14206492433701   -1.35004839543273   -1.19027733097843
O         3.02923853717968   -0.58085948988616   -0.69880587494564
C         5.38072493333223   -0.47267880916407   -1.34412365163654
H         6.22694936986575   -1.08887763409428   -1.62894523421803
H         5.20439602807128    0.26793278237023   -2.11687916765548
H         5.60471298331689    0.04401510942188   -0.41919519618781
C         3.72448638712467   -1.89557383739996   -2.56130204671604
H         2.83843717843421   -2.51310222155446   -2.44702462468622
H         3.46930155127084   -1.05950940058980   -3.20572897006502
H         4.52796047233171   -2.46435935630825   -3.01458659517748
H        -3.39339726079322   -3.98295216466845   -2.55264841234197
H        -5.18858724536444    1.46060060786612    1.30786825424285
C         0.23590000000002   -1.68140000000005    2.96030000000001
N        -0.98827657900387   -2.05399768412178    3.32869877806994
C         1.27345630453482   -1.86731232262728    3.92583288822454
C        -1.23679485538824   -2.52801430514821    4.55297033285795
Br        3.11861695257405   -1.73560154984748    3.56459462876657
C         1.01859275505931   -2.31172931806780    5.21342623169651
C        -0.27252879165445   -2.65845450816870    5.55770587737740
C        -2.51340211671889   -3.02835363770510    4.90902823997523
H         1.84137410481846   -2.44424785658405    5.90216847515809
H        -0.50394499773696   -3.06767029246271    6.52915566630357
N        -3.46467437751675   -3.49574396186918    5.35555028960770
96
 energy: -144.804354785480 gnorm: 0.041805043936 xtb: 6.4.1 (1a32961)
N        -0.92748284311899   -2.09647803322500   -0.27728863134752
C        -2.20363482737879   -1.68957851473357   -0.36383947106489
C        -3.11726390206212   -2.36106259133827   -1.18524184148341
C        -2.70909475513524   -3.46317073784848   -1.90573114603584
C        -1.38751512754849   -3.88358019566293   -1.78865473463789
C        -0.54419916256770   -3.16248576620337   -0.96705462915583
H         0.49073213959291   -3.45170495411585   -0.84601941603476
H        -1.02589872590624   -4.74651331821447   -2.32127863323002
H        -4.13733943681996   -2.02561353055153   -1.26449045507735
C        -2.57055455188048   -0.52627688838932    0.43597018895898
N        -1.58544337682036    0.06337967330826    1.13793964795592
C        -1.88171379053001    1.12132459480530    1.88317612457065
C        -3.15231516177059    1.65396616193949    1.98904519786562
C        -4.18096133632731    1.05742450953279    1.26746862523940
C        -3.88151009603722   -0.03705396142755    0.48414794906241
H        -4.66642442186136   -0.51273890690863   -0.07836397239515
H        -3.33328208618706    2.50691111843173    2.62086539453356
H        -1.05286759415746    1.56786240538798    2.41065236692045
Ir        0.42150000000000   -0.81650000000000    0.91330000000000
H         0.87260000000000   -2.23030000000000    1.54050000000000
B         0.47654419457579    0.44590674103518   -0.74252571530246
O         0.11184703918924   -0.02269593775063   -1.99343642107933
C        -0.02076881606559    1.08461607931045   -2.89205411484790
C         0.47100198049710    0.71946905170820   -4.29076158247320
H         1.48429982121069    0.33423306520603   -4.26793591802327
H         0.43117148805283    1.60129733600721   -4.92476988327269
H        -0.17617980337148   -0.04575135425466   -4.71133304281795
C        -1.52195363334780    1.40797155857374   -2.95944095501138
H        -1.72025659625784    2.21513688566854   -3.65695351255727
H        -2.05183442988686    0.51523729235380   -3.28454813902556
H        -1.88340517536987    1.67435088332806   -1.96824700043388
C         0.80187148797946    2.20193332512280   -2.17663451346184
O         0.76082985877652    1.78498289443908   -0.80663284435344
C         2.27761439649582    2.20156951238344   -2.59696748015088
H         2.68940734484325    1.20917119124351   -2.43466886235192
H         2.39297293172851    2.50559984577465   -3.63279752869346
H         2.82145806162218    2.89491315365378   -1.96007943502624
C         0.23916104813691    3.61457231676334   -2.31780544585617
H        -0.75590464175085    3.69328835961471   -1.89295685440022
H         0.89048613433782    4.30495136812366   -1.78822808472573
H         0.21119126570367    3.89161634193604   -3.36806210018522
B         1.54640020527353    0.68609182108525    1.83120249113641
O         2.90462895406746    0.67045642919491    2.00372155271338
C         3.34813674098989    1.94996290922441    2.46626846958363
C         4.51464858363719    1.80680856557612    3.44095526918003
H         4.26814701268290    1.15059494613710    4.26838717477005
H         5.36417963497915    1.37609218400031    2.91870601492355
H         4.78960482270147    2.78698904861135    3.81943795334549
C         3.80536267102948    2.69221126585866    1.20408559335326
H         4.20352176252286    3.67660323932137    1.42426345699350
H         4.57354357105447    2.08773326119134    0.72783019505492
H         2.96385900990855    2.75223269350150    0.51815229392689
C         2.04363063974880    2.54330836839354    3.08433555107802
O         1.01407730986699    1.82815059525731    2.38092872681814
C         1.87494602421840    4.04577587808545    2.89142423814344
H         1.82347005900619    4.29220051609507    1.83652639280795
H         0.95254276411757    4.36948047195903    3.36595587491349
H         2.71171106141129    4.56468739996666    3.34946129200046