10
 energy: -18.348621916652 gnorm: 0.046581499875 xtb: 6.4.1 (1a32961)
S         1.85294000000000    0.44652000000000    0.00385000000000
C         1.35072000000000   -1.19009000000000    0.00650000000000
C        -0.02141000000000   -1.30963000000000   -0.01165000000000
C        -0.66978000000000   -0.03949000000000   -0.01268000000000
C        -2.08888000000000    0.14102000000000   -0.00973000000000
N        -3.24352000000000    0.26223000000000   -0.00096000000000
C         0.23180000000000    1.00344000000000   -0.01265000000000
H         2.08287000000000   -1.98610000000000    0.02088000000000
H        -0.53683000000000   -2.26317000000000   -0.01649000000000
H         0.02788000000000    2.06685000000000   -0.01888000000000
10
 energy: -18.350258785646 gnorm: 0.018377036244 xtb: 6.4.1 (1a32961)
S         1.84557144444388    0.44936643124263    0.00423403838106
C         1.33395991209172   -1.18820549563159    0.00408822598157
C        -0.02117243825938   -1.30782481582626   -0.00450043052281
C        -0.66609282012725   -0.04012954834899   -0.01480345452254
C        -2.06754378969584    0.13365490965195   -0.01866516763933
N        -3.20579140267628    0.25606004539781   -0.00103255967423
C         0.22703463394999    1.00249904739795   -0.01000680938493
H         2.06051084915412   -1.97837675644566    0.01363711731715
H        -0.53880362466858   -2.25168954128810   -0.00929013366291
H         0.01811723578763    2.05622572385026   -0.01547082627302
10
 energy: -18.350294277568 gnorm: 0.007005948496 xtb: 6.4.1 (1a32961)
S         1.84576249891152    0.45033899137828   -0.00123437017476
C         1.32865119040978   -1.18923220075904    0.00052316132228
C        -0.02043333439312   -1.30711977927899   -0.00495154556919
C        -0.66388753501953   -0.03812919174067   -0.00877347544987
C        -2.05827470867224    0.13597193232163    0.00820785489208
N        -3.20074364474969    0.24575300908860   -0.02781614366956
C         0.22828209961900    1.00275709283744   -0.01072060746009
H         2.05459976914747   -1.97650818155614    0.00937454414252
H        -0.54398441097043   -2.24505035555199   -0.00375473644918
H         0.01581807571724    2.05279868326087   -0.01266468158423
10
 energy: -18.350336241359 gnorm: 0.011251315572 xtb: 6.4.1 (1a32961)
S         1.84517136099394    0.45272931716884    0.00146461506463
C         1.32659541428501   -1.19047917396193    0.00441250328688
C        -0.01789618230456   -1.30893786860001   -0.00388476631141
C        -0.66305349569360   -0.03934806426603   -0.00897793651189
C        -2.05324531567551    0.12761611834361   -0.02437391748857
N        -3.19637277451296    0.25533513689898   -0.00306438956788
C         0.22738356530469    1.00168626810822   -0.00760527269875
H         2.05467213526940   -1.97376027814456    0.00958510067561
H        -0.54705413151247   -2.24202024891817   -0.00525721658260
H         0.00958942384608    2.04875879337105   -0.01410871986603
10
 energy: -18.350430694328 gnorm: 0.002587522887 xtb: 6.4.1 (1a32961)
S         1.84647490098892    0.45172569968716    0.00038044591519
C         1.33018419251354   -1.19104810903822    0.00224426700421
C        -0.01910419247312   -1.30896729997351   -0.00248356351646
C        -0.66460028317707   -0.03856755165636   -0.00933169401721
C        -2.05933768028667    0.13122037896461   -0.01381154582381
N        -3.20069183656901    0.25295720735271   -0.01283828708461
C         0.22842391034546    1.00234960970434   -0.00828451372747
H         2.05979825553981   -1.97581312289280    0.00794297133899
H        -0.54778877442680   -2.24454023139531   -0.00303253486613
H         0.01243150754495    2.05226341924738   -0.01259554522269
10
 energy: -18.350435819091 gnorm: 0.001023748682 xtb: 6.4.1 (1a32961)
S         1.84671974545218    0.45194706264339   -0.00056959983327
C         1.32987193045052   -1.19174129101656    0.00198210570993
C        -0.01874452834979   -1.30913156139320   -0.00249858400457
C        -0.66433758898922   -0.03827748850739   -0.00816702360235
C        -2.05872059270401    0.13082961968045   -0.01238231931893
N        -3.20049555529719    0.25257213661420   -0.01523795270033
C         0.22882948191557    1.00230088749155   -0.00808047022942
H         2.06044511539240   -1.97540343662230    0.00726095807024
H        -0.54948218903868   -2.24343859713545   -0.00208108780262
H         0.01170418116823    2.05192266824530   -0.01203602628869
10
 energy: -18.350437548550 gnorm: 0.000765843839 xtb: 6.4.1 (1a32961)
S         1.84705571243788    0.45221332214336   -0.00121585967319
C         1.32994156188164   -1.19291208616815    0.00151133185706
C        -0.01832475437446   -1.30953401573521   -0.00191903350127
C        -0.66415829653732   -0.03801089034084   -0.00755971722458
C        -2.05878108324547    0.12987068390625   -0.01254490928732
N        -3.20056030760774    0.25312821408445   -0.01685216805457
C         0.22936929589555    1.00218291199618   -0.00779021412772
H         2.06249845807617   -1.97477530895492    0.00608266951202
H        -0.55198461560795   -2.24230201986684   -0.00045656310609
H         0.01073402908170    2.05171918893570   -0.01106553639433
10
 energy: -18.350437870442 gnorm: 0.000208546777 xtb: 6.4.1 (1a32961)
S         1.84687331114054    0.45212267318988   -0.00112790760042
C         1.32994896958742   -1.19273717690765    0.00175914222912
C        -0.01847296029831   -1.30949452618318   -0.00213277323908
C        -0.66420688540153   -0.03817258581745   -0.00759536072963
C        -2.05894106865087    0.12985991527899   -0.01250158659667
N        -3.20047455138215    0.25348346884186   -0.01634131145132
C         0.22917649724347    1.00215811546673   -0.00782422119099
H         2.06235949311967   -1.97473369322512    0.00650381400152
H        -0.55141287949608   -2.24266019765117   -0.00111186524869
H         0.01094007413784    2.05175400700709   -0.01143793017386
