      -----------------------------------------------------------      
     |                   =====================                   |     
     |                           x T B                           |     
     |                   =====================                   |     
     |                         S. Grimme                         |     
     |          Mulliken Center for Theoretical Chemistry        |     
     |                    University of Bonn                     |     
      -----------------------------------------------------------      

   * xtb version 6.4.0 (f63f532) compiled by 'knkr256@seskscpg008.prim.scp' on 2021-04-09

   xtb is free software: you can redistribute it and/or modify it under
   the terms of the GNU Lesser General Public License as published by
   the Free Software Foundation, either version 3 of the License, or
   (at your option) any later version.
   
   xtb is distributed in the hope that it will be useful,
   but WITHOUT ANY WARRANTY; without even the implied warranty of
   MERCHANTABILITY or FITNESS FOR A PARTICULAR PURPOSE.  See the
   GNU Lesser General Public License for more details.
   
   Cite this work as:
   * C. Bannwarth, E. Caldeweyher, S. Ehlert, A. Hansen, P. Pracht,
     J. Seibert, S. Spicher, S. Grimme, WIREs Comput. Mol. Sci., 2020, 11,
     e01493. DOI: 10.1002/wcms.1493
   
   for GFN2-xTB:
   * C. Bannwarth, S. Ehlert and S. Grimme., J. Chem. Theory Comput., 2019,
     15, 1652-1671. DOI: 10.1021/acs.jctc.8b01176
   for GFN1-xTB:
   * S. Grimme, C. Bannwarth, P. Shushkov, J. Chem. Theory Comput., 2017,
     13, 1989-2009. DOI: 10.1021/acs.jctc.7b00118
   for GFN0-xTB:
   * P. Pracht, E. Caldeweyher, S. Ehlert, S. Grimme, ChemRxiv, 2019, preprint.
     DOI: 10.26434/chemrxiv.8326202.v1
   for GFN-FF:
   * S. Spicher and S. Grimme, Angew. Chem. Int. Ed., 2020, 59, 15665-15673.
     DOI: 10.1002/anie.202004239
   
   for DFT-D4:
   * E. Caldeweyher, C. Bannwarth and S. Grimme, J. Chem. Phys., 2017,
     147, 034112. DOI: 10.1063/1.4993215
   * E. Caldeweyher, S. Ehlert, A. Hansen, H. Neugebauer, S. Spicher,
     C. Bannwarth and S. Grimme, J. Chem. Phys., 2019, 150, 154122.
     DOI: 10.1063/1.5090222
   * E. Caldeweyher, J.-M. Mewes, S. Ehlert and S. Grimme, Phys. Chem. Chem. Phys.
     2020, 22, 8499-8512. DOI: 10.1039/D0CP00502A
   
   for sTDA-xTB:
   * S. Grimme and C. Bannwarth, J. Chem. Phys., 2016, 145, 054103.
     DOI: 10.1063/1.4959605
   
   in the mass-spec context:
   * V. Asgeirsson, C. Bauer and S. Grimme, Chem. Sci., 2017, 8, 4879.
     DOI: 10.1039/c7sc00601b
   * J. Koopman and S. Grimme, ACS Omega 2019, 4, 12, 15120-15133.
     DOI: 10.1021/acsomega.9b02011
   
   for metadynamics refer to:
   * S. Grimme, J. Chem. Theory Comput., 2019, 155, 2847-2862
     DOI: 10.1021/acs.jctc.9b00143
   
   for SPH calculations refer to:
   * S. Spicher and S. Grimme, J. Chem. Theory Comput., 2021, 17, 1701-1714
     DOI: 10.1021/acs.jctc.0c01306
   
   with help from (in alphabetical order)
   P. Atkinson, C. Bannwarth, F. Bohle, G. Brandenburg, E. Caldeweyher
   M. Checinski, S. Dohm, S. Ehlert, S. Ehrlich, I. Gerasimov, J. Koopman
   C. Lavinge, S. Lehtola, F. März, M. Müller, F. Musil, H. Neugebauer
   J. Pisarek, P. Pracht, J. Seibert, P. Shushkov, S. Spicher, M. Stahn
   T. Strunk, J. Stückrath, T. Rose, and J. Unsleber
   
 * started run on 2021/10/08 at 07:17:38.159     

           -------------------------------------------------
          |                Calculation Setup                |
           -------------------------------------------------

          program call               : xtb xtbopt.xyz --sp --alpb thf -P 6
          hostname                   : seskscpg010.prim.scp
          coordinate file            : xtbopt.xyz
          omp threads                :                     6
          number of atoms            :                   106
          number of electrons        :                   280
          charge                     :                     0
          spin                       :                   0.0
          first test random number   :      0.99303818280261

   ID    Z sym.   atoms
    1    7 N      1, 11, 88, 96
    2    6 C      2-6, 10, 12-15, 23, 24, 28, 32, 34, 38, 44, 45, 49, 53, 55,
                  59, 65, 66, 70, 74, 76, 80, 86, 87, 89, 91, 92, 94, 99-101,
                  103
    3    1 H      7-9, 16-18, 20, 25-27, 29-31, 35-37, 39-41, 46-48, 50-52,
                  56-58, 60-62, 67-69, 71-73, 77-79, 81-85, 90, 93, 95, 97,
                  98, 102, 104-106
    4   77 Ir     19
    5    5 B      21, 42, 63
    6    8 O      22, 33, 43, 54, 64, 75

molecular fragmentation (1/2 indicates fragments):
111111111111111111111111111111111111111111111111111111111111111111111111
1111111111111222222222222222222222
# atoms in fragment 1/2:    85    21
 fragment masses (1/2) :      730.32      157.19
CMA distance (Bohr)    :  10.780
constraining FC (au)   :  0.0500

           -------------------------------------------------
          |                 G F N 2 - x T B                 |
           -------------------------------------------------

        Reference                      10.1021/acs.jctc.8b01176
      * Hamiltonian:
        H0-scaling (s, p, d)           1.850000    2.230000    2.230000
        zeta-weighting                 0.500000
      * Dispersion:
        s8                             2.700000
        a1                             0.520000
        a2                             5.000000
        s9                             5.000000
      * Repulsion:
        kExp                           1.500000    1.000000
        rExp                           1.000000
      * Coulomb:
        alpha                          2.000000
        third order                    shell-resolved
        anisotropic                    true
        a3                             3.000000
        a5                             4.000000
        cn-shift                       1.200000
        cn-exp                         4.000000
        max-rad                        5.000000

      * Solvation model:               ALPB
        Solvent                        thf
        Parameter file                 internal GFN2-xTB/ALPB
        Dielectric constant                7.6000E+00
        Reference state                gsolv [1 M gas/solution]
        Free energy shift                  5.3248E-03 Eh       3.3414E+00 kcal/mol
        Temperature                        2.9815E+02 K
        Density                            8.8300E-01 kg/L
        Solvent mass                       7.2106E+01 g/mol
        Interaction kernel             P16
        Born radius scaling (c1)           1.7311E+00
        Born radii integrator          GBOBC
        Born offset                        0.0000E+00 a0       0.0000E+00 AA
        H-bond correction              true
        Ion screening                  false
        Surface tension                    1.0000E-05 Eh       1.5569E+01 dyn/cm
        Grid points                               230 per atom
q/qsh data taken from xtbrestart
CAMM data taken from xtbrestart

          ...................................................
          :                      SETUP                      :
          :.................................................:
          :  # basis functions                 268          :
          :  # atomic orbitals                 267          :
          :  # shells                          159          :
          :  # electrons                       280          :
          :  max. iterations                   250          :
          :  Hamiltonian                  GFN2-xTB          :
          :  restarted?                       true          :
          :  GBSA solvation                   true          :
          :  PC potential                    false          :
          :  electronic temp.          300.0000000     K    :
          :  accuracy                    1.0000000          :
          :  -> integral cutoff          0.2500000E+02      :
          :  -> integral neglect         0.1000000E-07      :
          :  -> SCF convergence          0.1000000E-05 Eh   :
          :  -> wf. convergence          0.1000000E-03 e    :
          :  Broyden damping             0.4000000          :
          ...................................................

 iter      E             dE          RMSdq      gap      omega  full diag
   1   -154.9241415 -0.154924E+03  0.276E-05    0.89       0.0  T
   2   -154.9241415  0.402054E-09  0.670E-05    0.89     144.9  T
   3   -154.9241415 -0.468361E-09  0.104E-05    0.89     936.7  T

   *** convergence criteria satisfied after 3 iterations ***

         #    Occupation            Energy/Eh            Energy/eV
      -------------------------------------------------------------
         1        2.0000           -0.6747823             -18.3618
       ...           ...                  ...                  ...
       134        2.0000           -0.3521373              -9.5821
       135        2.0000           -0.3448418              -9.3836
       136        2.0000           -0.3325919              -9.0503
       137        2.0000           -0.3234402              -8.8013
       138        2.0000           -0.3174054              -8.6370
       139        2.0000           -0.3124826              -8.5031
       140        2.0000           -0.3094591              -8.4208 (HOMO)
       141                         -0.2766784              -7.5288 (LUMO)
       142                         -0.2489523              -6.7743
       143                         -0.2462147              -6.6998
       144                         -0.2340291              -6.3683
       145                         -0.2253207              -6.1313
       ...                                ...                  ...
       267                          3.7072675             100.8799
      -------------------------------------------------------------
                  HL-Gap            0.0327807 Eh            0.8920 eV
             Fermi-level           -0.2930493 Eh           -7.9743 eV

 SCC (total)                   0 d,  0 h,  0 min,  0.114 sec
 SCC setup                      ...        0 min,  0.002 sec (  1.967%)
 Dispersion                     ...        0 min,  0.003 sec (  2.238%)
 classical contributions        ...        0 min,  0.000 sec (  0.144%)
 integral evaluation            ...        0 min,  0.032 sec ( 27.753%)
 iterations                     ...        0 min,  0.035 sec ( 30.964%)
 molecular gradient             ...        0 min,  0.041 sec ( 36.340%)
 printout                       ...        0 min,  0.001 sec (  0.536%)

         :::::::::::::::::::::::::::::::::::::::::::::::::::::
         ::                     SUMMARY                     ::
         :::::::::::::::::::::::::::::::::::::::::::::::::::::
         :: total energy            -152.896191103892 Eh    ::
         :: total w/o Gsasa/hb      -152.852793439699 Eh    ::
         :: gradient norm              0.036059889233 Eh/a0 ::
         :: HOMO-LUMO gap              0.892007478219 eV    ::
         ::.................................................::
         :: SCC energy              -154.924141512226 Eh    ::
         :: -> isotropic ES            0.244137531789 Eh    ::
         :: -> anisotropic ES          0.018170425186 Eh    ::
         :: -> anisotropic XC          0.059441130106 Eh    ::
         :: -> dispersion             -0.145951557346 Eh    ::
         :: -> Gsolv                  -0.053876908740 Eh    ::
         ::    -> Gelec               -0.010479244548 Eh    ::
         ::    -> Gsasa               -0.046244785806 Eh    ::
         ::    -> Ghb                 -0.002477693830 Eh    ::
         ::    -> Gshift               0.005324815444 Eh    ::
         :: repulsion energy           2.019400957681 Eh    ::
         :: add. restraining           0.000000000000 Eh    ::
         :: total charge               0.000000000000 e     ::
         :::::::::::::::::::::::::::::::::::::::::::::::::::::

           -------------------------------------------------
          |                Property Printout                |
           -------------------------------------------------

    * Orbital Energies and Occupations

         #    Occupation            Energy/Eh            Energy/eV
      -------------------------------------------------------------
         1        2.0000           -0.6747823             -18.3618
       ...           ...                  ...                  ...
       128        2.0000           -0.3884797             -10.5711
       129        2.0000           -0.3865307             -10.5180
       130        2.0000           -0.3814668             -10.3802
       131        2.0000           -0.3803065             -10.3487
       132        2.0000           -0.3699418             -10.0666
       133        2.0000           -0.3559627              -9.6862
       134        2.0000           -0.3521373              -9.5821
       135        2.0000           -0.3448418              -9.3836
       136        2.0000           -0.3325919              -9.0503
       137        2.0000           -0.3234402              -8.8013
       138        2.0000           -0.3174054              -8.6370
       139        2.0000           -0.3124826              -8.5031
       140        2.0000           -0.3094591              -8.4208 (HOMO)
       141                         -0.2766784              -7.5288 (LUMO)
       142                         -0.2489523              -6.7743
       143                         -0.2462147              -6.6998
       144                         -0.2340291              -6.3683
       145                         -0.2253207              -6.1313
       146                         -0.2052137              -5.5841
       147                         -0.1880487              -5.1171
       148                         -0.1663006              -4.5253
       149                         -0.1509347              -4.1071
       150                         -0.1273099              -3.4643
       151                         -0.1233188              -3.3557
       ...                                ...                  ...
       267                          3.7072675             100.8799
      -------------------------------------------------------------
                  HL-Gap            0.0327807 Eh            0.8920 eV
             Fermi-level           -0.2930493 Eh           -7.9743 eV

     #   Z          covCN         q      C6AA      α(0)
     1   7 N        2.545    -0.125    23.747     7.237
     2   6 C        2.954     0.075    26.323     8.415
     3   6 C        2.918    -0.044    29.097     8.846
     4   6 C        2.923    -0.022    28.566     8.765
     5   6 C        2.915    -0.044    29.105     8.847
     6   6 C        2.892     0.048    26.911     8.505
     7   1 H        0.926     0.052     2.290     2.366
     8   1 H        0.926     0.055     2.254     2.348
     9   1 H        0.926     0.047     2.359     2.402
    10   6 C        2.953     0.071    26.410     8.429
    11   7 N        2.554    -0.131    23.877     7.257
    12   6 C        2.889     0.040    27.096     8.534
    13   6 C        2.915    -0.046    29.136     8.851
    14   6 C        2.922    -0.026    28.651     8.778
    15   6 C        2.918    -0.045    29.116     8.849
    16   1 H        0.926     0.045     2.384     2.414
    17   1 H        0.926     0.050     2.313     2.379
    18   1 H        0.926     0.076     2.022     2.224
    19  77 Ir       5.934    -0.153   387.805    36.417
    20   1 H        0.977     0.083     1.938     2.175
    21   5 B        2.630     0.405    15.999     6.758
    22   8 O        1.638    -0.407    20.999     6.186
    23   6 C        3.835     0.130    18.449     6.111
    24   6 C        3.755    -0.121    22.885     6.821
    25   1 H        0.925     0.054     2.276     2.359
    26   1 H        0.925     0.045     2.385     2.415
    27   1 H        0.925     0.051     2.302     2.373
    28   6 C        3.754    -0.109    22.641     6.785
    29   1 H        0.925     0.048     2.350     2.397
    30   1 H        0.925     0.041     2.429     2.437
    31   1 H        0.925     0.027     2.624     2.533
    32   6 C        3.841     0.131    18.435     6.108
    33   8 O        1.637    -0.404    20.932     6.176
    34   6 C        3.755    -0.121    22.878     6.820
    35   1 H        0.925     0.051     2.312     2.378
    36   1 H        0.925     0.046     2.367     2.406
    37   1 H        0.925     0.051     2.312     2.378
    38   6 C        3.754    -0.120    22.859     6.817
    39   1 H        0.925     0.047     2.363     2.404
    40   1 H        0.925     0.054     2.272     2.357
    41   1 H        0.925     0.045     2.377     2.411
    42   5 B        2.627     0.407    15.993     6.759
    43   8 O        1.637    -0.375    20.380     6.094
    44   6 C        3.838     0.128    18.480     6.116
    45   6 C        3.755    -0.126    22.983     6.836
    46   1 H        0.925     0.056     2.246     2.344
    47   1 H        0.925     0.057     2.239     2.340
    48   1 H        0.925     0.050     2.318     2.381
    49   6 C        3.755    -0.123    22.911     6.825
    50   1 H        0.925     0.049     2.333     2.388
    51   1 H        0.925     0.047     2.357     2.401
    52   1 H        0.925     0.053     2.282     2.362
    53   6 C        3.834     0.128    18.487     6.117
    54   8 O        1.637    -0.382    20.519     6.115
    55   6 C        3.755    -0.125    22.955     6.832
    56   1 H        0.925     0.054     2.268     2.355
    57   1 H        0.925     0.054     2.267     2.355
    58   1 H        0.925     0.049     2.329     2.386
    59   6 C        3.755    -0.125    22.950     6.831
    60   1 H        0.925     0.046     2.369     2.407
    61   1 H        0.925     0.054     2.275     2.359
    62   1 H        0.925     0.049     2.327     2.385
    63   5 B        2.630     0.405    15.995     6.756
    64   8 O        1.637    -0.374    20.360     6.091
    65   6 C        3.836     0.125    18.522     6.123
    66   6 C        3.755    -0.131    23.065     6.848
    67   1 H        0.925     0.061     2.187     2.312
    68   1 H        0.925     0.054     2.271     2.357
    69   1 H        0.925     0.051     2.313     2.378
    70   6 C        3.755    -0.128    23.016     6.841
    71   1 H        0.925     0.060     2.200     2.320
    72   1 H        0.925     0.051     2.311     2.377
    73   1 H        0.925     0.052     2.300     2.371
    74   6 C        3.830     0.127    18.504     6.121
    75   8 O        1.637    -0.378    20.442     6.103
    76   6 C        3.755    -0.125    22.947     6.830
    77   1 H        0.925     0.051     2.308     2.376
    78   1 H        0.925     0.053     2.279     2.361
    79   1 H        0.925     0.057     2.240     2.341
    80   6 C        3.755    -0.122    22.895     6.823
    81   1 H        0.925     0.040     2.449     2.447
    82   1 H        0.925     0.049     2.328     2.386
    83   1 H        0.925     0.055     2.264     2.353
    84   1 H        0.926     0.053     2.288     2.366
    85   1 H        0.926     0.049     2.337     2.391
    86   6 C        2.804     0.061    26.622     8.453
    87   6 C        2.917    -0.041    29.012     8.833
    88   7 N        1.846    -0.239    27.103     7.716
    89   6 C        2.926    -0.022    28.564     8.765
    90   1 H        0.926     0.029     2.601     2.522
    91   6 C        2.948     0.090    26.008     8.364
    92   6 C        2.915    -0.060    29.502     8.907
    93   1 H        0.925     0.037     2.484     2.465
    94   6 C        3.750    -0.019    20.968     6.531
    95   1 H        0.926     0.041     2.438     2.442
    96   7 N        2.866     0.001    21.246     6.846
    97   1 H        0.924     0.067     2.119     2.276
    98   1 H        0.924     0.070     2.081     2.256
    99   6 C        3.058    -0.032    28.746     8.792
   100   6 C        3.056    -0.028    28.654     8.779
   101   6 C        3.057    -0.076    29.830     8.957
   102   1 H        0.926     0.024     2.678     2.559
   103   6 C        3.062    -0.074    29.790     8.950
   104   1 H        0.926     0.039     2.456     2.451
   105   1 H        0.926     0.012     2.853     2.641
   106   1 H        0.926     0.013     2.847     2.639

 Mol. C6AA /au·bohr⁶  :     121728.079753
 Mol. C8AA /au·bohr⁸  :    3216749.076423
 Mol. α(0) /au        :        542.266409


Wiberg/Mayer (AO) data.
largest (>0.10) Wiberg bond orders for each atom

 ---------------------------------------------------------------------------
     #   Z sym  total        # sym  WBO       # sym  WBO       # sym  WBO
 ---------------------------------------------------------------------------
     1   7 N    3.402 --     6 C    1.389     2 C    1.309    19 Ir   0.441
     2   6 C    3.978 --     3 C    1.344     1 N    1.309    10 C    1.097
     3   6 C    3.987 --     4 C    1.488     2 C    1.344     9 H    0.962
                             6 C    0.106
     4   6 C    3.984 --     3 C    1.488     5 C    1.378    84 H    0.969
     5   6 C    3.977 --     6 C    1.462     4 C    1.378     8 H    0.969
     6   6 C    3.978 --     5 C    1.462     1 N    1.389     7 H    0.957
                             3 C    0.106
     7   1 H    0.997 --     6 C    0.957
     8   1 H    0.996 --     5 C    0.969
     9   1 H    0.997 --     3 C    0.962
    10   6 C    3.977 --    15 C    1.351    11 N    1.296     2 C    1.097
    11   7 N    3.402 --    12 C    1.377    10 C    1.296    19 Ir   0.437
    12   6 C    3.973 --    13 C    1.465    11 N    1.377    18 H    0.947
                            15 C    0.105
    13   6 C    3.981 --    12 C    1.465    14 C    1.377    17 H    0.969
    14   6 C    3.980 --    15 C    1.481    13 C    1.377    85 H    0.969
    15   6 C    3.989 --    14 C    1.481    10 C    1.351    16 H    0.962
                            12 C    0.105
    16   1 H    0.997 --    15 C    0.962
    17   1 H    0.997 --    13 C    0.969
    18   1 H    0.994 --    12 C    0.947
    19  77 Ir   5.195 --    63 B    0.862    42 B    0.849    21 B    0.711
                            86 C    0.607    20 H    0.531     1 N    0.441
                            11 N    0.437
    20   1 H    0.991 --    19 Ir   0.531    86 C    0.335
    21   5 B    3.274 --    33 O    1.110    22 O    1.095    19 Ir   0.711
    22   8 O    2.193 --    21 B    1.095    23 C    0.942
    23   6 C    3.943 --    24 C    0.997    28 C    0.990    22 O    0.942
                            32 C    0.941
    24   6 C    3.994 --    23 C    0.997    26 H    0.984    27 H    0.983
                            25 H    0.983
    25   1 H    0.997 --    24 C    0.983
    26   1 H    0.997 --    24 C    0.984
    27   1 H    0.997 --    24 C    0.983
    28   6 C    3.997 --    23 C    0.990    31 H    0.985    30 H    0.984
                            29 H    0.984
    29   1 H    0.997 --    28 C    0.984
    30   1 H    0.998 --    28 C    0.984
    31   1 H    0.999 --    28 C    0.985
    32   6 C    3.940 --    38 C    0.997    34 C    0.991    23 C    0.941
                            33 O    0.938
    33   8 O    2.200 --    21 B    1.110    32 C    0.938
    34   6 C    3.994 --    32 C    0.991    36 H    0.984    35 H    0.982
                            37 H    0.982
    35   1 H    0.997 --    34 C    0.982
    36   1 H    0.997 --    34 C    0.984
    37   1 H    0.997 --    34 C    0.982
    38   6 C    3.994 --    32 C    0.997    41 H    0.984    39 H    0.983
                            40 H    0.983
    39   1 H    0.998 --    38 C    0.983
    40   1 H    0.997 --    38 C    0.983
    41   1 H    0.997 --    38 C    0.984
    42   5 B    3.341 --    43 O    1.130    54 O    1.105    19 Ir   0.849
    43   8 O    2.236 --    42 B    1.130    44 C    0.935
    44   6 C    3.936 --    45 C    0.997    49 C    0.991    53 C    0.939
                            43 O    0.935
    45   6 C    3.992 --    44 C    0.997    48 H    0.983    46 H    0.982
                            47 H    0.982
    46   1 H    0.997 --    45 C    0.982
    47   1 H    0.997 --    45 C    0.982
    48   1 H    0.996 --    45 C    0.983
    49   6 C    3.994 --    44 C    0.991    50 H    0.983    51 H    0.983
                            52 H    0.979
    50   1 H    0.997 --    49 C    0.983
    51   1 H    0.997 --    49 C    0.983
    52   1 H    0.997 --    49 C    0.979
    53   6 C    3.937 --    55 C    0.996    59 C    0.992    44 C    0.939
                            54 O    0.934
    54   8 O    2.226 --    42 B    1.105    53 C    0.934
    55   6 C    3.993 --    53 C    0.996    58 H    0.983    57 H    0.983
                            56 H    0.982
    56   1 H    0.997 --    55 C    0.982
    57   1 H    0.997 --    55 C    0.983
    58   1 H    0.996 --    55 C    0.983
    59   6 C    3.994 --    53 C    0.992    62 H    0.983    61 H    0.983
                            60 H    0.980
    60   1 H    0.998 --    59 C    0.980
    61   1 H    0.996 --    59 C    0.983
    62   1 H    0.997 --    59 C    0.983
    63   5 B    3.363 --    64 O    1.120    75 O    1.118    19 Ir   0.862
    64   8 O    2.231 --    63 B    1.120    65 C    0.936
    65   6 C    3.936 --    70 C    0.997    66 C    0.991    74 C    0.938
                            64 O    0.936
    66   6 C    3.992 --    65 C    0.991    69 H    0.983    68 H    0.982
                            67 H    0.979
    67   1 H    0.996 --    66 C    0.979
    68   1 H    0.997 --    66 C    0.982
    69   1 H    0.996 --    66 C    0.983
    70   6 C    3.992 --    65 C    0.997    72 H    0.983    73 H    0.982
                            71 H    0.982
    71   1 H    0.996 --    70 C    0.982
    72   1 H    0.996 --    70 C    0.983
    73   1 H    0.997 --    70 C    0.982
    74   6 C    3.935 --    76 C    0.996    80 C    0.991    65 C    0.938
                            75 O    0.936
    75   8 O    2.235 --    63 B    1.118    74 C    0.936
    76   6 C    3.992 --    74 C    0.996    77 H    0.983    78 H    0.982
                            79 H    0.982
    77   1 H    0.996 --    76 C    0.983
    78   1 H    0.997 --    76 C    0.982
    79   1 H    0.997 --    76 C    0.982
    80   6 C    3.995 --    74 C    0.991    81 H    0.984    83 H    0.983
                            82 H    0.983
    81   1 H    0.998 --    80 C    0.984
    82   1 H    0.997 --    80 C    0.983
    83   1 H    0.996 --    80 C    0.983
    84   1 H    0.996 --     4 C    0.969
    85   1 H    0.997 --    14 C    0.969
    86   6 C    3.931 --    88 N    1.400    87 C    1.344    19 Ir   0.607
                            20 H    0.335
    87   6 C    3.989 --    89 C    1.460    86 C    1.344    90 H    0.964
                            91 C    0.109
    88   7 N    3.098 --    91 C    1.407    86 C    1.400
    89   6 C    3.988 --    87 C    1.460    92 C    1.420    93 H    0.968
    90   1 H    0.998 --    87 C    0.964
    91   6 C    3.974 --    88 N    1.407    92 C    1.403    94 C    0.983
                            87 C    0.109
    92   6 C    3.984 --    89 C    1.420    91 C    1.403    95 H    0.968
    93   1 H    0.997 --    89 C    0.968
    94   6 C    3.973 --    96 N    0.984    91 C    0.983    97 H    0.968
                            98 H    0.959
    95   1 H    0.997 --    92 C    0.968
    96   7 N    3.638 --   100 C    1.231    99 C    1.226    94 C    0.984
    97   1 H    0.995 --    94 C    0.968
    98   1 H    0.995 --    94 C    0.959
    99   6 C    3.939 --   101 C    1.542    96 N    1.226   102 H    0.970
                           100 C    0.130
   100   6 C    3.946 --   103 C    1.549    96 N    1.231   104 H    0.969
                            99 C    0.130
   101   6 C    3.977 --    99 C    1.542   103 C    1.332   105 H    0.975
   102   1 H    0.999 --    99 C    0.970
   103   6 C    3.977 --   100 C    1.549   101 C    1.332   106 H    0.976
   104   1 H    0.998 --   100 C    0.969
   105   1 H    0.999 --   101 C    0.975
   106   1 H    0.999 --   103 C    0.976
 ---------------------------------------------------------------------------

Topologies differ in total number of bonds
Writing topology from bond orders to xtbtopo.mol

molecular dipole:
                 x           y           z       tot (Debye)
 q only:       -0.358       1.309      -0.921
   full:       -1.959       1.493      -1.309       7.090
molecular quadrupole (traceless):
                xx          xy          yy          xz          yz          zz
 q only:       13.961      14.104     -11.835      -6.111      26.753      -2.126
  q+dip:       12.589      17.620     -13.806     -11.260      30.076       1.217
   full:       10.535      18.707     -11.766     -12.672      27.736       1.231


           -------------------------------------------------
          | TOTAL ENERGY             -152.896191103892 Eh   |
          | GRADIENT NORM               0.036059889233 Eh/α |
          | HOMO-LUMO GAP               0.892007478219 eV   |
           -------------------------------------------------

------------------------------------------------------------------------
 * finished run on 2021/10/08 at 07:17:38.318     
------------------------------------------------------------------------
 total:
 * wall-time:     0 d,  0 h,  0 min,  0.158 sec
 *  cpu-time:     0 d,  0 h,  0 min,  0.926 sec
 * ratio c/w:     5.848 speedup
 SCF:
 * wall-time:     0 d,  0 h,  0 min,  0.115 sec
 *  cpu-time:     0 d,  0 h,  0 min,  0.689 sec
 * ratio c/w:     5.975 speedup

