106
 energy: -152.881898181841 gnorm: 0.076897761700 xtb: 6.4.0 (f63f532)
N        -0.96510000000000   -2.11530000000000   -0.24090000000001
C        -2.24700000000002   -1.69840000000002   -0.36220000000000
C        -3.14039999999999   -2.36820000000000   -1.21200000000001
C        -2.70220000000003   -3.47560000000001   -1.93050000000000
C        -1.37780000000004   -3.89879999999997   -1.78759999999998
C        -0.54290000000002   -3.18670000000002   -0.93509999999996
H         0.49810000000000   -3.45630000000000   -0.78940000000000
H        -0.99570000000000   -4.76029999999999   -2.32769999999998
H        -4.16499999999998   -2.02890000000001   -1.31830000000000
C        -2.62130000000000   -0.50949999999998    0.44100000000003
N        -1.62600000000000    0.07329999999997    1.16020000000000
C        -1.89680000000003    1.15240000000000    1.91690000000001
C        -3.17230000000003    1.70330000000007    1.99650000000002
C        -4.20509999999999    1.11739999999993    1.26270000000002
C        -3.92610000000001    0.00250000000001    0.47820000000005
H        -4.71960000000001   -0.46420000000001   -0.09520000000001
H        -3.34630000000000    2.57509999999998    2.62069999999996
H        -1.04450000000000    1.57420000000001    2.43690000000000
Ir        0.42150000000000   -0.81650000000000    0.91330000000000
H         0.87260000000000   -2.23030000000000    1.54050000000000
B         0.50670000000000    0.41559999999998   -0.81540000000000
O         0.19500000000001   -0.04700000000002   -2.09150000000003
C         0.00649999999999    1.10039999999997   -2.95430000000001
C         0.49019999999996    0.74740000000001   -4.35779999999996
H         1.51610000000002    0.37379999999999   -4.33700000000000
H         0.44730000000000    1.62239999999997   -5.01670000000000
H        -0.14740000000000   -0.03389999999999   -4.78430000000000
C        -1.50119999999999    1.39559999999999   -2.96669999999994
H        -1.75369999999998    2.21459999999999   -3.64849999999999
H        -2.03200000000000    0.49450000000002   -3.28929999999999
H        -1.85170000000001    1.65210000000002   -1.96220000000001
C         0.84229999999999    2.20670000000001   -2.22040000000000
O         0.75200000000000    1.78259999999998   -0.83689999999998
C         2.32930000000003    2.18620000000013   -2.59899999999996
H         2.74129999999999    1.18500000000001   -2.45750000000000
H         2.48870000000001    2.51299999999999   -3.63180000000000
H         2.87200000000001    2.86270000000000   -1.93199999999999
C         0.28440000000003    3.62289999999994   -2.33659999999993
H        -0.72649999999999    3.69040000000000   -1.92910000000001
H         0.92130000000000    4.31479999999999   -1.77610000000002
H         0.26430000000001    3.94810000000000   -3.38320000000003
B         1.56300000000001    0.60960000000000    1.84839999999999
O         2.92780000000001    0.55229999999997    2.15020000000000
C         3.36330000000001    1.88660000000001    2.50259999999998
C         4.53140000000002    1.78590000000006    3.47740000000000
H         4.27910000000000    1.16090000000002    4.33690000000001
H         5.39390000000003    1.33790000000001    2.97340000000000
H         4.82390000000000    2.77870000000000    3.83820000000000
C         3.79699999999999    2.56849999999999    1.19669999999999
H         4.20020000000000    3.57090000000001    1.37680000000000
H         4.56740000000000    1.95560000000001    0.72110000000000
H         2.95240000000000    2.63260000000000    0.50540000000000
C         2.05040000000000    2.50090000000005    3.09319999999998
O         1.03749999999997    1.81620000000001    2.31909999999998
C         1.89099999999997    4.00449999999993    2.88650000000003
H         1.87290000000001    4.25440000000000    1.82410000000003
H         0.94940000000002    4.34260000000001    3.33170000000001
H         2.71080000000000    4.55150000000000    3.36630000000000
C         1.82470000000003    2.13200000000009    4.56519999999998
H         1.92609999999999    1.05330000000006    4.71320000000000
H         2.52610000000002    2.65280000000000    5.22540000000003
H         0.80629999999999    2.41580000000000    4.84900000000001
B         2.27819999999999   -1.33089999999999    0.17410000000001
O         2.89460000000001   -2.57740000000000    0.38450000000001
C         4.26930000000002   -2.48200000000001   -0.07210000000006
C         5.10899999999998   -2.05379999999999    1.14009999999997
H         4.76350000000000   -1.08739999999998    1.51750000000000
H         4.98050000000000   -2.79470000000003    1.93590000000000
H         6.17420000000000   -1.99290000000000    0.89300000000000
C         4.71949999999997   -3.84659999999999   -0.58469999999994
H         4.75280000000000   -4.56130000000000    0.24419999999993
H         5.72329999999999   -3.78370000000001   -1.02010000000002
H         4.03499999999997   -4.23600000000000   -1.34170000000002
C         4.16440000000000   -1.36220000000001   -1.16299999999996
O         3.08520000000001   -0.55029999999999   -0.65399999999999
C         5.40720000000000   -0.48870000000000   -1.31549999999998
H         6.27320000000000   -1.09009999999999   -1.61530000000001
H         5.23300000000001    0.26929999999999   -2.08590000000002
H         5.64269999999999    0.02649999999998   -0.38239999999995
C         3.71799999999992   -1.89830000000002   -2.53109999999997
H         2.82529999999999   -2.52160000000000   -2.42739999999999
H         3.46089999999999   -1.05249999999993   -3.17550000000002
H         4.50570000000003   -2.48290000000003   -3.01790000000001
H        -3.38500000000002   -4.00129999999996   -2.59310000000000
H        -5.21400000000000    1.52080000000000    1.29959999999999
C         0.23590000000001   -1.68140000000000    2.96030000000001
C        -1.02341145467821   -2.14691003290863    3.34272464208551
N         1.24410742378113   -1.68515385999476    3.83231809081473
C        -1.23023762539032   -2.57931189079394    4.64212930666712
H        -1.83674223069750   -2.19532353228371    2.63140763051941
C         1.06911164116702   -2.14822063732219    5.07128157052262
C        -0.16128519032052   -2.60376792169652    5.52926001634842
H        -2.20477956290079   -2.93814182739004    4.95076574958232
C         2.33209415722751   -2.27204317671829    5.88746960530316
H        -0.27493220599706   -2.99270780731405    6.53198737710462
N         3.05841812090023   -3.45240749908594    5.46206673813155
H         2.10695488135565   -2.36779571024233    6.95293033039037
H         2.95612172606592   -1.38866493662761    5.71451110148853
C         3.39866566765663   -4.51979783268325    6.23669899793062
C         3.48461958504930   -3.67769710074722    4.18814609673693
C         4.05759803485307   -5.43365481847357    5.45488313538188
H         3.15752948969733   -4.55201583023071    7.28501053944320
C         4.10812007036266   -4.89785324958716    4.15131317792280
H         3.28012617969038   -2.96006318442067    3.41256658978699
H         4.45955065302279   -6.37904195027716    5.77691875602457
H         4.55700989596114   -5.35962137187729    3.28849215151868
106
 energy: -152.888580272893 gnorm: 0.047782411589 xtb: 6.4.0 (f63f532)
N        -0.96189885287524   -2.09997879867822   -0.25228716240518
C        -2.24062965695139   -1.68991376482165   -0.36528191054188
C        -3.13518909597510   -2.36239142950887   -1.20709660974680
C        -2.70434529272744   -3.46375277511887   -1.92238695684309
C        -1.38399422456392   -3.88248046910772   -1.78298019177803
C        -0.55382018120121   -3.16765882783688   -0.94171481717587
H         0.47977653419457   -3.44798240809798   -0.79113607289086
H        -1.00737976045754   -4.74263335118436   -2.31782611997903
H        -4.15568418854535   -2.02708316722871   -1.31144533756979
C        -2.61171879391364   -0.51267697643779    0.43367536500026
N        -1.61924372063305    0.06618376432498    1.14796841571151
C        -1.89783796939372    1.13926992147376    1.89331605801511
C        -3.16457426593817    1.68833351087350    1.98073514435569
C        -4.19626723837841    1.10373551703703    1.25393619030579
C        -3.91463262064988   -0.00212375547073    0.47306247230669
H        -4.70598209328631   -0.46565120600809   -0.09577069623896
H        -3.33982068386639    2.55121566937895    2.60781252369876
H        -1.05466098220320    1.55758462769433    2.42236786638346
Ir        0.42150000000000   -0.81650000000000    0.91330000000000
H         0.87260000000000   -2.23030000000000    1.54050000000000
B         0.48902621553894    0.42698801074600   -0.78905446849092
O         0.17515813805637   -0.03408191383982   -2.06102159678455
C         0.01124623782357    1.09677730153895   -2.94340420214350
C         0.49073616761204    0.74643930583723   -4.34801195726056
H         1.50968595480250    0.36977029199139   -4.32630333913471
H         0.44607550232579    1.62168158270769   -4.99676922828078
H        -0.14791682942231   -0.02957213009166   -4.76852556280924
C        -1.49294190499081    1.39896049655212   -2.97048352047163
H        -1.73118399274327    2.21164079873837   -3.65498215657429
H        -2.02276116120587    0.50168013904758   -3.29035212542114
H        -1.83992815814681    1.65407260101359   -1.96902858813744
C         0.83272705102560    2.20732743173341   -2.21284535507217
O         0.75481008578244    1.78220117811780   -0.83520760750082
C         2.31534781376995    2.19048714510180   -2.59969386214872
H         2.71948418138763    1.19141696958171   -2.44915526335495
H         2.46728134636386    2.51155999665248   -3.62950488566657
H         2.85739290800015    2.86527784701848   -1.93825766772081
C         0.28108873047261    3.62324109203180   -2.34047803365545
H        -0.72230472879185    3.69214644005977   -1.92840572996224
H         0.92059372616411    4.30680883405258   -1.78362579205402
H         0.26375243439314    3.93540888621594   -3.38475041675227
B         1.56821562951651    0.60966356063719    1.86564823143239
O         2.92915841492334    0.56470116896307    2.13384853368978
C         3.36349143237114    1.88617375616119    2.50943400569528
C         4.53305914540671    1.79004168553942    3.48027076034650
H         4.27992896952285    1.16073537653795    4.32903336004778
H         5.38791419816681    1.34528664955462    2.97309469520329
H         4.81521375260556    2.78044114965923    3.83694916382609
C         3.79885287629078    2.57501335411948    1.21141578159120
H         4.19997136843439    3.57083255861560    1.39545659593448
H         4.56299096775587    1.96361253688635    0.73461718113547
H         2.95081220997202    2.62696148696314    0.52992538042862
C         2.05294926981129    2.50360108555842    3.08989886558106
O         1.04126013451637    1.80414081282448    2.33826457799107
C         1.89256901909342    4.00583014213306    2.88889672179833
H         1.86754647353881    4.24929172926585    1.83060298969436
H         0.95511966247729    4.33549202190935    3.33517914373968
H         2.71292273267607    4.54251971402814    3.36483769502670
C         1.83167644030119    2.13887293952453    4.56171263135525
H         1.93352426125719    1.06220293553020    4.69403613001570
H         2.53308885334191    2.65956509747949    5.21129374264077
H         0.81700309542129    2.41767589844564    4.84608824111468
B         2.27819999999999   -1.33089999999999    0.17410000000001
O         2.90014493505416   -2.56121571316462    0.38941556538788
C         4.26534747519287   -2.48250643224353   -0.07772060147663
C         5.11254581389822   -2.05751134540392    1.12558096841739
H         4.75349235557753   -1.10003266714930    1.50059114155937
H         4.98685017652565   -2.79500451871443    1.91665775403778
H         6.16955700195166   -1.99475503083046    0.87135040076717
C         4.71994431787886   -3.84462476462771   -0.58748842097162
H         4.74944983928276   -4.54731667672030    0.24382902610102
H         5.71806935335608   -3.77364809547627   -1.01891706645094
H         4.03460572798975   -4.23374784890713   -1.33577473397604
C         4.16564852574151   -1.35990556682631   -1.15810410410515
O         3.07225230262441   -0.56350156790962   -0.66342813244469
C         5.40891211391084   -0.49159205829350   -1.31518863779856
H         6.26509689680910   -1.09772337149604   -1.61014542130151
H         5.23131764094388    0.25955529800816   -2.08366711498120
H         5.63614109454694    0.02212922577297   -0.38565640924282
C         3.72942611150541   -1.89939374150894   -2.52632718095180
H         2.83770762651281   -2.51532018640429   -2.41765618691180
H         3.47229078284584   -1.05817600400181   -3.16868364755201
H         4.51985695157676   -2.47665733092607   -3.00311450920706
H        -3.38337384908279   -3.98873089296602   -2.58045887581319
H        -5.20038326263908    1.50452841539382    1.29472131301776
C         0.23590000000001   -1.68140000000000    2.96030000000001
C        -1.02764654433276   -2.14496013857954    3.34511575182621
N         1.23977328079151   -1.68670483809116    3.83109146808527
C        -1.23175727114293   -2.57453745775139    4.64429012649064
H        -1.84106266304903   -2.19253164602253    2.63538510053758
C         1.06757151444974   -2.14590010055301    5.06557173212186
C        -0.16105638206798   -2.59864168833423    5.52759101557388
H        -2.20476188825923   -2.93148741193072    4.95543335607219
C         2.33214693741153   -2.27104406381238    5.88303270543304
H        -0.27236518400609   -2.98501418635420    6.52993531930328
N         3.05729116953620   -3.45064496926160    5.46116964326396
H         2.10726555538875   -2.36446202046692    6.94763856173837
H         2.95652002695737   -1.38873993471198    5.71035761581270
C         3.39677090496058   -4.51461883890473    6.23643238818279
C         3.48319768099705   -3.67717227867286    4.19042324244170
C         4.05469905960233   -5.42945882813551    5.45773974270368
H         3.15638617519656   -4.54509771172375    7.28239607317685
C         4.10548762140916   -4.89631604215846    4.15462963292347
H         3.28000585120947   -2.96227994771129    3.41592001508906
H         4.45519655148679   -6.37256205740576    5.78058009185393
H         4.55292332038375   -5.35842349999793    3.29445247074772
106
 energy: -152.890364883580 gnorm: 0.037947539360 xtb: 6.4.0 (f63f532)
N        -0.95439937526644   -2.09022917297843   -0.26373630077930
C        -2.23155548416526   -1.68201721509356   -0.37124838391037
C        -3.13131319811149   -2.35504614673780   -1.20663917502701
C        -2.70825620887191   -3.45383554638931   -1.92186528816203
C        -1.38802426854845   -3.87255337018665   -1.78591441214201
C        -0.55819422176249   -3.15698750588172   -0.95036449131180
H         0.47415318272968   -3.44073808459215   -0.80712993665890
H        -1.01685548920501   -4.73253186557662   -2.31835612102806
H        -4.15086720243411   -2.02174305354217   -1.30261528455432
C        -2.59906976823280   -0.51395070089111    0.42353930746517
N        -1.60940589297981    0.05959547968573    1.14085416784492
C        -1.89493721704682    1.12776254455433    1.88086564225041
C        -3.15707146639002    1.67747368175426    1.97009895448079
C        -4.18914146214925    1.09334451976404    1.24316956966898
C        -3.90262714881637   -0.00524823441552    0.46184583759977
H        -4.69090719039693   -0.46990772104042   -0.10582129612459
H        -3.33335270379631    2.53599783509318    2.59725335100906
H        -1.05698026469729    1.55108806547706    2.41112877700446
Ir        0.42150000000000   -0.81650000000000    0.91330000000000
H         0.87260000000000   -2.23030000000000    1.54050000000000
B         0.49380003082680    0.44016550025383   -0.76504083824092
O         0.15603602426433   -0.02281479235813   -2.02871560122979
C         0.00784539292597    1.09441759062021   -2.92287120623673
C         0.49302830713317    0.73766087373019   -4.32432491898220
H         1.50818199448022    0.35727600562227   -4.30288092643285
H         0.44893340599803    1.61565575584761   -4.96377320806347
H        -0.14941714163129   -0.03231490384601   -4.74346546970330
C        -1.49456236368379    1.40618814990941   -2.97108213344789
H        -1.71386832324408    2.21465741515692   -3.66191841696159
H        -2.02336558061325    0.51109874682697   -3.29187331107302
H        -1.84492999746953    1.66518909403867   -1.97414109619915
C         0.82585062002287    2.20814607949278   -2.19999052735413
O         0.75873841524814    1.78907199938192   -0.82655838261953
C         2.30604221352739    2.19573505934512   -2.59634312833817
H         2.70692185196737    1.19828279050477   -2.43788292490270
H         2.44521954903853    2.50857979309780   -3.62723781699165
H         2.84788089730645    2.87532478518218   -1.94340665845297
C         0.27179697391130    3.62246744436493   -2.33854484097903
H        -0.72759989159727    3.69735466543036   -1.92347421483319
H         0.91620584485796    4.30492718197364   -1.79124279584104
H         0.25552338579946    3.91729328386453   -3.38437192130647
B         1.57702570724373    0.61712972986353    1.86517567185401
O         2.92984602685342    0.57673253070103    2.11932928692809
C         3.36313651219900    1.88795978601940    2.51195493257673
C         4.52992041038945    1.79064611189872    3.48677281010535
H         4.27904982907814    1.15592159054586    4.32902912202860
H         5.38286803869213    1.35345065056750    2.97583969939522
H         4.80153696869328    2.78042202245245    3.84250947797057
C         3.80348015893154    2.58897776703223    1.22230728577355
H         4.20054173521096    3.58084256046949    1.41527638565833
H         4.56705209849982    1.98063920056248    0.74556512597505
H         2.95411665427804    2.63524638549696    0.54521044907257
C         2.05295088002378    2.50098060482195    3.09158343963979
O         1.04345920310104    1.79322723986796    2.35354491460311
C         1.89236327906070    4.00296822285057    2.88881334417739
H         1.85956859089072    4.24516620010612    1.83266072766699
H         0.95969831224904    4.32818024377546    3.34137449012476
H         2.71603253257135    4.53124773488210    3.36027949201380
C         1.84267085038219    2.14260508361813    4.56734136580578
H         1.94572176549618    1.06688256004965    4.68965704101628
H         2.54688480765300    2.66491775832840    5.20687005395905
H         0.83040310240160    2.41893650935111    4.85363013025346
B         2.27819999999999   -1.33089999999999    0.17410000000000
O         2.90330976204908   -2.54725582688260    0.39969700609268
C         4.25868404773710   -2.47924700009389   -0.07874162736258
C         5.11916712590613   -2.05819916461986    1.11570849533373
H         4.75224132570705   -1.10676405285960    1.49267487253976
H         5.00291899731361   -2.79764813000054    1.90275556449450
H         6.16881433123153   -1.99085662682321    0.84723379753928
C         4.71155305874975   -3.84168762765173   -0.59024728232577
H         4.74336429589580   -4.53632699289233    0.24389533331616
H         5.70568894945029   -3.76229794256397   -1.02045496806675
H         4.02615836547217   -4.23368266563926   -1.33336055581795
C         4.16042890975656   -1.35906632278856   -1.15746019112055
O         3.05853349257751   -0.57272429696634   -0.67323176158424
C         5.40474167189817   -0.49176401286743   -1.30948122947520
H         6.25333369366878   -1.10543612778269   -1.59789718721403
H         5.22932014899007    0.25252886401591   -2.08104878516890
H         5.62759869533354    0.02383383994035   -0.38274942910766
C         3.74015545093444   -1.90297336876603   -2.52949016021464
H         2.84980808615310   -2.51662409884505   -2.42011295471596
H         3.48685685629749   -1.06407943685668   -3.17283506042627
H         4.53750871369021   -2.47583644205521   -2.99225867765561
H        -3.38868452526429   -3.97988080207208   -2.57306789776648
H        -5.19208792205413    1.48916796922556    1.28815328517219
C         0.23590000000002   -1.68140000000000    2.96030000000002
C        -1.03175403977801   -2.14016893940008    3.34835923249336
N         1.23715627085000   -1.68764521413944    3.82940079320548
C        -1.23322717407487   -2.56514249954409    4.64858080695353
H        -1.84601508624915   -2.18605472934677    2.64026317793267
C         1.06742723132579   -2.14064100702697    5.06236336933735
C        -0.16049919405079   -2.58945598254417    5.52944159575219
H        -2.20601804343786   -2.91809759205969    4.96323040663147
C         2.33361190790492   -2.26586306208071    5.88016549898029
H        -0.27016281883283   -2.97247334905601    6.53236410560797
N         3.05580712700983   -3.44604471158254    5.46128934284022
H         2.10782813611580   -2.35549727748114    6.94428091346430
H         2.95797626709221   -1.38435911552737    5.70518442404411
C         3.39329618296092   -4.50698923917058    6.23867853838016
C         3.48082284218824   -3.67572540242525    4.19252391997501
C         4.05015214371041   -5.42473548420849    5.46320889666327
H         3.15330609986708   -4.53450471666559    7.28372310318820
C         4.10167903334277   -4.89534720643682    4.15910339113526
H         3.27991661291607   -2.96318145936905    3.41692132683281
H         4.44921409642724   -6.36639513136943    5.78836422249557
H         4.54809347639840   -5.35951942763386    3.30103411612440
106
 energy: -152.891006143285 gnorm: 0.037841163346 xtb: 6.4.0 (f63f532)
N        -0.94605331203681   -2.08665391578133   -0.27533372580518
C        -2.22396243103794   -1.67832758742218   -0.37817713415666
C        -3.12862584344259   -2.35188215050492   -1.20929313401235
C        -2.71093767123434   -3.45103542799330   -1.92550451843596
C        -1.38862113793627   -3.86935217417662   -1.79573719961110
C        -0.55506430459223   -3.15252290319707   -0.96476115534816
H         0.47743759584613   -3.43954980914544   -0.82680285650852
H        -1.02141817394693   -4.73041000822674   -2.32815490404440
H        -4.14833102136410   -2.01747559989477   -1.29894847120882
C        -2.58940958360429   -0.51352769361821    0.41560886941361
N        -1.60062718212183    0.05886322169045    1.13600547661462
C        -1.88975626607782    1.12664162727907    1.87430021886959
C        -3.15213740298262    1.67474084198813    1.96424444303840
C        -4.18452324288215    1.08944744593820    1.23577706629674
C        -3.89410598110876   -0.00547996990676    0.45238515216050
H        -4.67934679999653   -0.47027245461940   -0.11916887477126
H        -3.33020129654464    2.53095709332284    2.59293814871112
H        -1.05511871264509    1.55130190342057    2.40934091456744
Ir        0.42150000000000   -0.81650000000001    0.91330000000000
H         0.87260000000000   -2.23030000000000    1.54050000000000
B         0.47854841126985    0.45683204635276   -0.74476196684388
O         0.13484029247295   -0.01274390508245   -2.00408272639937
C         0.00036222192442    1.09562091588371   -2.90574553783979
C         0.49422900286892    0.72731259315016   -4.30200900685548
H         1.50680636713808    0.34089677873957   -4.27313645849508
H         0.45799757709598    1.60462934431789   -4.94225546042689
H        -0.15108268256764   -0.04003966365243   -4.72111921798284
C        -1.50077899553036    1.41553044574645   -2.97163628538491
H        -1.70477253728065    2.22160311142008   -3.66939285835389
H        -2.03014452565029    0.52165559984776   -3.29418880522864
H        -1.86027239773395    1.68144677619333   -1.97990545425323
C         0.81898687655163    2.21194334532701   -2.18720686850048
O         0.75900925439472    1.80040514396367   -0.81434092559469
C         2.29800737168598    2.20040372183229   -2.59127624067335
H         2.70064308603106    1.20485583792515   -2.42578039033476
H         2.42904239145252    2.50469832924735   -3.62538471153090
H         2.84072401825695    2.88741771387904   -1.94707927914906
C         0.26384660262069    3.62591811403470   -2.33460284854603
H        -0.73374825722890    3.70502937282341   -1.91638576992437
H         0.91156813324980    4.31295576021633   -1.79715376911990
H         0.24383442400183    3.90775971304106   -3.38369603997270
B         1.57923348579220    0.61340980735842    1.87830321490206
O         2.93306920262085    0.58245968858399    2.10791687193963
C         3.36334928376739    1.88898972942644    2.51341025091710
C         4.52923744113603    1.78878901317039    3.49055577205209
H         4.27983885963849    1.14741337792516    4.32803222180577
H         5.38512159940550    1.35974343857557    2.97781107001101
H         4.79313327375242    2.77816444414684    3.85235766567925
C         3.80722979232241    2.60333218187943    1.23113508914126
H         4.19978273526362    3.59438891596873    1.43467943365371
H         4.57493881289111    2.00115998970033    0.75329915872702
H         2.95959943207808    2.65115225090131    0.55238866023388
C         2.05301730769173    2.49814633616135    3.09711723753022
O         1.04302421920159    1.78342230154196    2.37025855784548
C         1.88867214822351    4.00009294587241    2.89087875875117
H         1.84742857106678    4.24012196064193    1.83453834156196
H         0.95971779671995    4.32536112822502    3.35068343733399
H         2.71675886080669    4.52741024911625    3.35495370658110
C         1.85294645575250    2.14519969664171    4.57662507648585
H         1.95796364070594    1.07000378817480    4.69896933990164
H         2.56162387976581    2.67043285645198    5.20790035599107
H         0.84233290031611    2.42120365572670    4.86804122416165
B         2.27819999999999   -1.33089999999998    0.17410000000000
O         2.90622947401433   -2.53953750113454    0.41065030948028
C         4.25503134294208   -2.47709968799081   -0.07828047532932
C         5.12747081443874   -2.05752771719695    1.10914934719892
H         4.75911509945782   -1.10928829171636    1.49229260691003
H         5.02253409116109   -2.80091004730697    1.89408419967256
H         6.17299978105447   -1.98477676585370    0.82794506955782
C         4.70287767266541   -3.84183596195009   -0.59090383788164
H         4.73810314335843   -4.53410148677498    0.24480788952525
H         5.69477409811339   -3.76065109677499   -1.02494781547662
H         4.01434068163887   -4.23481537231032   -1.33037254370316
C         4.15617469784573   -1.35883708733179   -1.15900825052002
O         3.04814381989938   -0.57765995975561   -0.68406007754105
C         5.39983574287832   -0.48862608233079   -1.30555604111691
H         6.24865342950504   -1.10547030710539   -1.58560097798428
H         5.22874227622046    0.25148939302414   -2.08182719938922
H         5.61655316620618    0.03065475121890   -0.37959818625869
C         3.74970706254263   -1.90693582628002   -2.53453147009144
H         2.86014255575609   -2.52222435260579   -2.43106974680765
H         3.50172723024671   -1.06978009135684   -3.18200621092668
H         4.55410475883963   -2.47836204161657   -2.98584134366176
H        -3.39469686656522   -3.97736258601194   -2.57263356537743
H        -5.18830686399498    1.48207777673544    1.28202811746220
C         0.23590000000002   -1.68140000000001    2.96030000000002
C        -1.03396345867814   -2.13419142857904    3.35184683836429
N         1.23703267363723   -1.68713038729706    3.82785440686167
C        -1.23403159987246   -2.55322484461526    4.65399570956949
H        -1.84955108624780   -2.17864344633600    2.64529435097836
C         1.06825188453845   -2.13343676336447    5.06256101502757
C        -0.15998028120996   -2.57755711260814    5.53375831095068
H        -2.20757875187302   -2.90132628362720    4.97209146260250
C         2.33569535110427   -2.25788622978087    5.87932100992275
H        -0.26931134859387   -2.95658709629841    6.53807289116101
N         3.05491300673287   -3.43982763665064    5.46277529435773
H         2.10991312065941   -2.34353203967843    6.94363714738482
H         2.96039817603124   -1.37734478430229    5.70066163737253
C         3.39012598975054   -4.49883406605335    6.24309295875388
C         3.47911406674727   -3.67372738378619    4.19474064837017
C         4.04500533375502   -5.42046400918960    5.47025402867288
H         3.14999403376486   -4.52304367683326    7.28820552870301
C         4.09755593703695   -4.89492737772552    4.16457810741394
H         3.28032773913726   -2.96329016279564    3.41658667142013
H         4.44205215652984   -6.36193489504579    5.79821586281964
H         4.54265612674494   -5.36255525543913    3.30777370172314
106
 energy: -152.891764056169 gnorm: 0.038194789808 xtb: 6.4.0 (f63f532)
N        -0.93376097271055   -2.08396824516855   -0.29345794455848
C        -2.21324519296670   -1.67485779868134   -0.38998571388620
C        -3.12377129223659   -2.34924205319207   -1.21626675346243
C        -2.71249411034844   -3.44896912784857   -1.93454282115407
C        -1.38721804153810   -3.86619323548436   -1.81438861508917
C        -0.54783356110243   -3.14835510942567   -0.98877768736225
H         0.48636820258422   -3.43677776585559   -0.86132394440365
H        -1.02448774094213   -4.72757684212095   -2.34966921442264
H        -4.14417041954924   -2.01342785479704   -1.29715134633769
C        -2.57656902134371   -0.51268104283674    0.40427883156820
N        -1.58938509662305    0.05623511751534    1.13286317531014
C        -1.88218456063574    1.12540810378480    1.86968336887965
C        -3.14502362249154    1.67303916881287    1.95685139782762
C        -4.17684542558555    1.08828745716157    1.22354240185858
C        -3.88159787634353   -0.00197350074984    0.43635643953220
H        -4.66249411913461   -0.46516457062887   -0.14312493967528
H        -3.32548325778543    2.52721765551448    2.58760865332823
H        -1.05089979885686    1.55246275962587    2.40932994516840