97
 energy: -137.721225279073 gnorm: 0.076274514229 xtb: 6.4.1 (1a32961)
N        -0.96510000000000   -2.11530000000000   -0.24090000000000
C        -2.24700000000000   -1.69840000000000   -0.36220000000000
C        -3.14040000000000   -2.36820000000000   -1.21200000000000
C        -2.70220000000000   -3.47560000000000   -1.93050000000000
C        -1.37780000000000   -3.89880000000000   -1.78760000000000
C        -0.54290000000000   -3.18670000000000   -0.93510000000000
H         0.49810000000000   -3.45630000000000   -0.78940000000000
H        -0.99570000000000   -4.76030000000000   -2.32770000000000
H        -4.16500000000000   -2.02890000000000   -1.31830000000000
C        -2.62130000000000   -0.50950000000000    0.44100000000000
N        -1.62600000000000    0.07330000000000    1.16020000000000
C        -1.89680000000000    1.15240000000000    1.91690000000000
C        -3.17230000000000    1.70330000000000    1.99650000000000
C        -4.20510000000000    1.11740000000000    1.26270000000000
C        -3.92610000000000    0.00250000000000    0.47820000000000
H        -4.71960000000000   -0.46420000000000   -0.09520000000000
H        -3.34630000000000    2.57510000000000    2.62070000000000
H        -1.04450000000000    1.57420000000000    2.43690000000000
Ir        0.42150000000000   -0.81650000000000    0.91330000000000
H         0.87260000000000   -2.23030000000000    1.54050000000000
B         0.50670000000000    0.41560000000000   -0.81540000000000
O         0.19500000000000   -0.04700000000000   -2.09150000000000
C         0.00650000000000    1.10040000000000   -2.95430000000000
C         0.49020000000000    0.74740000000000   -4.35780000000000
H         1.51610000000000    0.37380000000000   -4.33700000000000
H         0.44730000000000    1.62240000000000   -5.01670000000000
H        -0.14740000000000   -0.03390000000000   -4.78430000000000
C        -1.50120000000000    1.39560000000000   -2.96670000000000
H        -1.75370000000000    2.21460000000000   -3.64850000000000
H        -2.03200000000000    0.49450000000000   -3.28930000000000
H        -1.85170000000000    1.65210000000000   -1.96220000000000
C         0.84230000000000    2.20670000000000   -2.22040000000000
O         0.75200000000000    1.78260000000000   -0.83690000000000
C         2.32930000000000    2.18620000000000   -2.59900000000000
H         2.74130000000000    1.18500000000000   -2.45750000000000
H         2.48870000000000    2.51300000000000   -3.63180000000000
H         2.87200000000000    2.86270000000000   -1.93200000000000
C         0.28440000000000    3.62290000000000   -2.33660000000000
H        -0.72650000000000    3.69040000000000   -1.92910000000000
H         0.92130000000000    4.31480000000000   -1.77610000000000
H         0.26430000000000    3.94810000000000   -3.38320000000000
B         1.56300000000000    0.60960000000000    1.84840000000000
O         2.92780000000000    0.55230000000000    2.15020000000000
C         3.36330000000000    1.88660000000000    2.50260000000000
C         4.53140000000000    1.78590000000000    3.47740000000000
H         4.27910000000000    1.16090000000000    4.33690000000000
H         5.39390000000000    1.33790000000000    2.97340000000000
H         4.82390000000000    2.77870000000000    3.83820000000000
C         3.79700000000000    2.56850000000000    1.19670000000000
H         4.20020000000000    3.57090000000000    1.37680000000000
H         4.56740000000000    1.95560000000000    0.72110000000000
H         2.95240000000000    2.63260000000000    0.50540000000000
C         2.05040000000000    2.50090000000000    3.09320000000000
O         1.03750000000000    1.81620000000000    2.31910000000000
C         1.89100000000000    4.00450000000000    2.88650000000000
H         1.87290000000000    4.25440000000000    1.82410000000000
H         0.94940000000000    4.34260000000000    3.33170000000000
H         2.71080000000000    4.55150000000000    3.36630000000000
C         1.82470000000000    2.13200000000000    4.56520000000000
H         1.92610000000000    1.05330000000000    4.71320000000000
H         2.52610000000000    2.65280000000000    5.22540000000000
H         0.80630000000000    2.41580000000000    4.84900000000000
B         2.27820000000000   -1.33090000000000    0.17410000000000
O         2.89460000000000   -2.57740000000000    0.38450000000000
C         4.26930000000000   -2.48200000000000   -0.07210000000000
C         5.10900000000000   -2.05380000000000    1.14010000000000
H         4.76350000000000   -1.08740000000000    1.51750000000000
H         4.98050000000000   -2.79470000000000    1.93590000000000
H         6.17420000000000   -1.99290000000000    0.89300000000000
C         4.71950000000000   -3.84660000000000   -0.58470000000000
H         4.75280000000000   -4.56130000000000    0.24420000000000
H         5.72330000000000   -3.78370000000000   -1.02010000000000
H         4.03500000000000   -4.23600000000000   -1.34170000000000
C         4.16440000000000   -1.36220000000000   -1.16300000000000
O         3.08520000000000   -0.55030000000000   -0.65400000000000
C         5.40720000000000   -0.48870000000000   -1.31550000000000
H         6.27320000000000   -1.09010000000000   -1.61530000000000
H         5.23300000000000    0.26930000000000   -2.08590000000000
H         5.64270000000000    0.02650000000000   -0.38240000000000
C         3.71800000000000   -1.89830000000000   -2.53110000000000
H         2.82530000000000   -2.52160000000000   -2.42740000000000
H         3.46090000000000   -1.05250000000000   -3.17550000000000
H         4.50570000000000   -2.48290000000000   -3.01790000000000
H        -3.38500000000000   -4.00130000000000   -2.59310000000000
H        -5.21400000000000    1.52080000000000    1.29960000000000
C         0.23590000000000   -1.68140000000000    2.96030000000000
C        -0.93669783502073   -2.16585403973472    3.50988344162183
N         1.21285709583091   -1.88647808291577    3.90698314124905
C        -0.67802708952008   -2.59003730971668    4.82907706528085
H        -1.89386577426482   -2.21579895899648    3.01839451511951
C         0.66268950733234   -2.40152024534672    5.04065742519981
C         2.63940033608975   -1.72407741730277    3.79215214687272
H        -1.37903097894796   -3.01373318805291    5.52788075223051
H         1.27034980908636   -2.60129615743996    5.90718931447017
H         2.91701205751129   -1.69353577906474    2.74125841696447
H         3.14202522312987   -2.55682861692861    4.28842702722467
H         2.97391031364276   -0.79568710585467    4.25896336516361
97
 energy: -137.728550832195 gnorm: 0.048147613957 xtb: 6.4.1 (1a32961)
N        -0.96060850557072   -2.10125481848955   -0.24812739032216
C        -2.23901402748749   -1.69121004692453   -0.36245636216032
C        -3.13324234918109   -2.36230800966532   -1.20572780377157
C        -2.70317369174893   -3.46361879969122   -1.92154178975293
C        -1.38286460759359   -3.88214334026326   -1.78216245160657
C        -0.55344276804359   -3.16843147448722   -0.93928363687677
H         0.48051579966606   -3.44837093370457   -0.79109422225665
H        -1.00648976193422   -4.74216772440105   -2.31772755965672
H        -4.15399199557426   -2.02706382561495   -1.30968480248962
C        -2.61110195084726   -0.51543263094443    0.43748369235654
N        -1.61860289389216    0.06409793293460    1.14865620431267
C        -1.89722494946306    1.13492722223211    1.89583919664771
C        -3.16388604882288    1.68492132113962    1.98406285279488
C        -4.19556660779936    1.10135196306146    1.25723279530642
C        -3.91426365776925   -0.00519998121549    0.47720390835216
H        -4.70596303877577   -0.46852193935427   -0.09164401339377
H        -3.33878871356478    2.54847385251355    2.61062286986264
H        -1.05414773633716    1.55339789055047    2.42446630061348
Ir        0.42150000000000   -0.81650000000000    0.91330000000000
H         0.87260000000000   -2.23030000000000    1.54050000000000
B         0.49005337989885    0.42203364319335   -0.79113067500555
O         0.17505100552613   -0.03558155652511   -2.06436941965691
C         0.00951214093719    1.09687859659710   -2.94346727953555
C         0.48847429481701    0.74838326245447   -4.34874703495478
H         1.50760876100881    0.37191504745495   -4.32777517859965
H         0.44323591904507    1.62408153126650   -4.99695445774521
H        -0.15010488734807   -0.02769803057530   -4.76937082371217
C        -1.49474409698519    1.39911409818414   -2.96906214314783
H        -1.73403996319014    2.21239280719637   -3.65264870184395
H        -2.02488337907026    0.50198494170362   -3.28898833185727
H        -1.84139780147256    1.65321911554621   -1.96715728466940
C         0.83096307374628    2.20653476104642   -2.21178682313875
O         0.75494884820729    1.77846520921616   -0.83524355193384
C         2.31358983692701    2.19136275313228   -2.59958695238545
H         2.71840545878930    1.19234719292716   -2.45039632153463
H         2.46505661073520    2.51333748792429   -3.62924533131639
H         2.85573277068724    2.86610263787886   -1.93799957961532
C         0.27932001256084    3.62277535405443   -2.33818178670928
H        -0.72402122426517    3.69150245422082   -1.92585547782052
H         0.91873037795687    4.30657375354655   -1.78129825162148
H         0.26133272602188    3.93594105363004   -3.38227071100107
B         1.55908671058495    0.62627156081635    1.85182357389398
O         2.92436517272819    0.58371068602636    2.11582312528003
C         3.36233975121913    1.89881069214872    2.50407195550146
C         4.53268913111184    1.79406825615903    3.47493335791312
H         4.28225823060956    1.16742887444805    4.32677102298879
H         5.38685862215494    1.34747057201214    2.96799749976473
H         4.81803789113737    2.78253204604041    3.83306959411890
C         3.80023100424725    2.58483092575425    1.20698639765011
H         4.20259273270279    3.57968024824831    1.39093196249952
H         4.56310939884528    1.97012240948902    0.73187438102593
H         2.95170791068705    2.63541527943841    0.52610404200591
C         2.05145680309632    2.51069200652771    3.08892039651968
O         1.03703126117164    1.81703139764643    2.33661107675273
C         1.89284152070947    4.01226090474589    2.89050975397487
H         1.86708176136614    4.25511430719551    1.83209526760909
H         0.95513575608766    4.34000364377896    3.33736594449287
H         2.71387310778428    4.54765405447332    3.36671350527002
C         1.83044479906801    2.14652001325141    4.56160211136317
H         1.92777923510902    1.07152512477745    4.70117357056843
H         2.53257149990648    2.66545083899345    5.21184496976127
H         0.81619618419829    2.42430969222548    4.84650678827611
B         2.27820000000000   -1.33090000000000    0.17410000000000
O         2.90639463510395   -2.56004145632773    0.39336109412314
C         4.26935855274864   -2.48250966898437   -0.08045128832126
C         5.11915283596260   -2.05738291042895    1.12183478747634
H         4.76957554487210   -1.09439727607109    1.49167821294177
H         4.99030538510626   -2.79261318390928    1.91537672943130
H         6.17559459954367   -1.99982034282354    0.86664554925725
C         4.72191907356807   -3.84520836137245   -0.58996899621382
H         4.75193404131685   -4.54929524234383    0.24027249017751
H         5.71906244549513   -3.77423797016453   -1.02349609961145
H         4.03491451493115   -4.23227929757332   -1.33763097801985
C         4.16700587665845   -1.35922789043367   -1.15943454553474
O         3.07543295311131   -0.56345000384207   -0.66078949094010
C         5.40985920592206   -0.49041477745711   -1.31695406916725
H         6.26609875884290   -1.09565540070340   -1.61353376682300
H         5.23061824261548    0.26082676812445   -2.08485872975692
H         5.63770374753273    0.02415357030064   -0.38793187288045
C         3.72883369059072   -1.89829520800847   -2.52713036168820
H         2.83683136823643   -2.51384520165366   -2.41827622625329
H         3.47075564782237   -1.05662384890425   -3.16848497287506
H         4.51852150038864   -2.47509646838429   -3.00583739161039
H        -3.38262705199731   -3.98866258547213   -2.57943052931398
H        -5.19967990974535    1.50273925995714    1.29779542995249
C         0.23589999999999   -1.68140000000000    2.96030000000000
C        -0.94724474677265   -2.14814442774163    3.50820613022304
N         1.20517152313917   -1.89345528514173    3.91303076701548
C        -0.69725851346989   -2.57260430051474    4.82681875055790
H        -1.90297730983068   -2.18519163041596    3.01640541388580
C         0.64363539280818   -2.39982944577575    5.04242302347366
C         2.63054031243265   -1.74219861174602    3.79808619923619
H        -1.40454458579362   -2.98582060725489    5.52249015592431
H         1.24368124469606   -2.60486577924640    5.90995585223064
H         2.90678096377613   -1.71446588415638    2.74926597451111
H         3.12539088218435   -2.57852501638784    4.29358947184992
H         2.97037930440955   -0.81478995129561    4.26213784047061
97
 energy: -137.731115183029 gnorm: 0.038916142150 xtb: 6.4.1 (1a32961)
N        -0.95071742735734   -2.09455284611531   -0.25371047036965
C        -2.22741560318999   -1.68635616364986   -0.36348181139891
C        -3.12632653395254   -2.35597449408674   -1.20225704946373
C        -2.70481817966238   -3.45394952907770   -1.91920035422562
C        -1.38460007897900   -3.87225724303053   -1.78344444199932
C        -0.55619625986351   -3.15919159931915   -0.94498049295263
H         0.47615898694420   -3.44400011415012   -0.80470327085926
H        -1.01380946599847   -4.73142277507538   -2.31759656318213
H        -4.14560011562499   -2.02147405645664   -1.29857253645917
C        -2.59669132358946   -0.52063809154157    0.43245995430705
N        -1.60710844341000    0.05433404111723    1.14433650988267
C        -1.89281887426251    1.11827183816736    1.88759692390373
C        -3.15489328302895    1.66885962468966    1.97893174395309
C        -4.18703181373376    1.08604323264107    1.25241497758171
C        -3.90108249156304   -0.01354466561286    0.47247826909861
H        -4.69028513796499   -0.47880785393647   -0.09367694270688
H        -3.33069876067173    2.52776173174917    2.60586506838181
H        -1.05568096319350    1.54157417180543    2.41830122985075
Ir        0.42150000000000   -0.81650000000000    0.91330000000000
H         0.87260000000000   -2.23030000000000    1.54050000000000
B         0.49179417191075    0.43027163768896   -0.76974133422259
O         0.15415269915626   -0.02592763915442   -2.03627977451719
C         0.00358508663815    1.09458841511884   -2.92385785813097
C         0.48693007385695    0.74308680807889   -4.32733793899097
H         1.50244681279962    0.36353458732006   -4.30808598093166
H         0.44103049701395    1.62254505969996   -4.96458450425125
H        -0.15529471642695   -0.02670985104441   -4.74700448106018
C        -1.49899207826906    1.40610234859909   -2.96811512743833
H        -1.72040122967485    2.21607040355491   -3.65639412252328
H        -2.02850635404717    0.51155886966875   -3.28925549441476
H        -1.84756473540438    1.66250957867921   -1.96982824879221
C         0.82146126770388    2.20613869418919   -2.19807909503492
O         0.75740172954087    1.78096448691401   -0.82731549100880
C         2.30152525927381    2.19742718660476   -2.59667638610678
H         2.70400730506861    1.20022531355454   -2.44122964939862
H         2.43929743763245    2.51288710642547   -3.62692551141603
H         2.84313133893645    2.87651292183553   -1.94298206916257
C         0.26703687900706    3.62099007439949   -2.33247905608314
H        -0.73200973092400    3.69525480985494   -1.91651031116847
H         0.91162787747441    4.30292322672295   -1.78464978242969
H         0.24963897913204    3.91812835769232   -3.37761878498825
B         1.55794538090125    0.64085602394267    1.85492941769449
O         2.92018860687094    0.60492014787125    2.09432653882963
C         3.35888930637676    1.90806016249457    2.50084994719865
C         4.52786803406217    1.80026851435680    3.47420427775464
H         4.28077533429992    1.17192654564960    4.32265272818110
H         5.37754413946497    1.35768439020178    2.96242257890667
H         4.80641085799672    2.78818880410083    3.82844679494017
C         3.80385036566640    2.61215301436304    1.21563614380355
H         4.20394756992706    3.60266775775639    1.40659331514184
H         4.56505691607003    1.99915876803195    0.74079001707997
H         2.95493535528667    2.65715907108653    0.53824687778232
C         2.05091689915963    2.51841374750880    3.08825740166932
O         1.03691474040703    1.81665329135967    2.35314048020979
C         1.89253802992658    4.02021782382930    2.89036948390322
H         1.85865683923561    4.26252130523702    1.83444941106398
H         0.96012071128321    4.34353957237159    3.34421253206581
H         2.71719223193290    4.54613589500684    3.36228100344437
C         1.84114196759400    2.16316896494568    4.56574432537273
H         1.93652823874328    1.08971011438239    4.70066560716691
H         2.54690044858259    2.68404557348988    5.20464085321141
H         0.82956381367445    2.44052076886850    4.85147257779397
B         2.27820000000000   -1.33090000000000    0.17409999999999
O         2.91542020418366   -2.54520737342661    0.40611321074232
C         4.26680599658553   -2.47849155301319   -0.08377666709949
C         5.13630867880288   -2.05777323298752    1.10604903171551
H         4.78850465255478   -1.09535642874177    1.47271824538857
H         5.01181200106702   -2.79013837214412    1.89899144923230
H         6.18540114363084   -2.00517677277359    0.83459203505309
C         4.71563402619012   -3.84136073307615   -0.59726110917090
H         4.74910145736171   -4.53861217520762    0.23454352025502
H         5.70776573070547   -3.76224703223165   -1.03165356556070
H         4.02676585022973   -4.22975807118052   -1.33876071540131
C         4.16262016866362   -1.35748233329489   -1.16029846861028
O         3.06215127188786   -0.57372197943583   -0.67124255010612
C         5.40575821687424   -0.48867431944689   -1.31530364693052
H         6.25451223599041   -1.10043204694557   -1.60662883886592
H         5.22675471239763    0.25549812695967   -2.08592130520929
H         5.63023778328561    0.02858452067594   -0.38991575520633
C         3.73852323836366   -1.89997732262414   -2.53149103907743
H         2.84797180982858   -2.51305803869191   -2.42092747381339
H         3.48290664852508   -1.06021462721413   -3.17270182538713
H         4.53443135714088   -2.47161689517093   -2.99794922062493
H        -3.38561715026058   -3.97896337284581   -2.57103052161511
H        -5.18977023866785    1.48302348002579    1.29669006586486
C         0.23589999999997   -1.68140000000000    2.96030000000000
C        -0.96273919283124   -2.11913720662692    3.50323642204032
N         1.19324665900912   -1.90418940196812    3.92063348070702
C        -0.72934023526752   -2.54031701985425    4.82464975825146
H        -1.91699662184748   -2.13459201161184    3.00829490255488
C         0.61403999548793   -2.39489532678805    5.04705114732903
C         2.61840713705749   -1.76549424826653    3.80483707960130
H        -1.45018204941725   -2.93320463268521    5.51756522432294
H         1.20257141780417   -2.60750203093149    5.91936507439825
H         2.89322307104711   -1.73996186814023    2.75608592965212
H         3.10464924480777   -2.60652161900156    4.30007034523711
H         2.96568945051950   -0.84022708673952    4.26792025233742
97
 energy: -137.732497560426 gnorm: 0.038371242172 xtb: 6.4.1 (1a32961)
N        -0.93778530757426   -2.09227470536656   -0.26343934814848
C        -2.21551897264728   -1.68450357144896   -0.36755194357966
C        -3.11974103388674   -2.35362723907607   -1.20230350170661
C        -2.70483469696348   -3.45112690214791   -1.92138153177610
C        -1.38248700275294   -3.86941299482028   -1.79199739836365
C        -0.55031840366733   -3.15575966323897   -0.95820261821929
H         0.48190124350452   -3.44533159239777   -0.82433705727755
H        -1.01615393184573   -4.72896876511379   -2.32689454954843
H        -4.13868229125299   -2.01700622419323   -1.29155137837902
C        -2.58335613605201   -0.52424885292249    0.42848144485345
N        -1.59468687833124    0.05069787202396    1.14189419560183
C        -1.88523873569468    1.11186719536370    1.88526154156177
C        -3.14774594031038    1.65942771264190    1.97921537955385
C        -4.18033186172132    1.07486340307712    1.25168025359340
C        -3.88996121639239   -0.02047122023127    0.46967717576465
H        -4.67630400867200   -0.48752238098934   -0.09835079430380
H        -3.32568775942996    2.51479482252590    2.60867170515184
H        -1.05266344920926    1.53706959108494    2.42198041854402
Ir        0.42150000000001   -0.81650000000000    0.91330000000000
H         0.87260000000000   -2.23030000000000    1.54050000000000
B         0.47632414611202    0.44434195977329   -0.74935889569454
O         0.12918159432302   -0.01641243161876   -2.01145901837340
C        -0.00731051833788    1.09528251242480   -2.90515117691890
C         0.48360487800730    0.73536838787306   -4.30485359202496
H         1.49658201273176    0.35034145384478   -4.28038398238023
H         0.44409423723839    1.61594496408953   -4.93987481830584
H        -0.16176167185751   -0.03077154846034   -4.72541114592031
C        -1.50865156568218    1.41581685674900   -2.96687564312910
H        -1.71392340179025    2.22411900875429   -3.66103631722353
H        -2.03892000329522    0.52311236816225   -3.29063489700438
H        -1.86544865734098    1.67785155288136   -1.97331536699965
C         0.81092197897938    2.20897050608436   -2.18302080827202
O         0.75686690241623    1.78959429424287   -0.81451144643062
C         2.28922785682724    2.20361635337940   -2.59225447228458
H         2.69445180636521    1.20869022203266   -2.43088096721511
H         2.41605566729004    2.51147607562399   -3.62550884057607
H         2.83161199477614    2.89021437279067   -1.94766020679314
C         0.25439793803410    3.62342666629278   -2.32414597089913
H        -0.74202520503013    3.70138143527146   -1.90346905280096
H         0.90314751672905    4.30902320745297   -1.78644855592947
H         0.23217000407877    3.90768634290835   -3.37221497019617
B         1.55668892742467    0.64908549701629    1.86116346122323
O         2.91982819115851    0.62173410502098    2.07699722090031
C         3.35596447010839    1.91828780017449    2.49781452749275
C         4.52515837188559    1.80564668104872    3.47214168327410
H         4.27912865098845    1.17357576233592    4.31761295903262
H         5.37459235603594    1.36721540104361    2.95712371775344
H         4.79956215452151    2.79346549726456    3.82837337733170
C         3.80580707513316    2.63914751863026    1.22175941008398
H         4.20104147742285    3.62796059788259    1.42694230393735
H         4.57187996492374    2.03418094950620    0.74471896964030
H         2.95948293648662    2.68822443644042    0.54200098957362
C         2.04847630218216    2.52552546727964    3.09042890047038
O         1.03329020952443    1.81482718641908    2.37037096570359
C         1.88766930411635    4.02802430340321    2.88970836924509
H         1.84461572081399    4.27024922093990    1.83432263382766
H         0.96024840649311    4.35186033270284    3.35257611952103
H         2.71777382611769    4.55077998078494    3.35433002718761
C         1.85214547853510    2.18021878138494    4.57344413778878
H         1.94878790684929    1.10750282466827    4.71096514133316
H         2.56375962136846    2.70580018815515    5.20073700129680
H         0.84292984781862    2.45971991287161    4.86436176200076
B         2.27820000000001   -1.33090000000000    0.17409999999999
O         2.92410432669939   -2.53445635639387    0.42139847573768
C         4.26563276953244   -2.47429321161097   -0.08584723678840
C         5.15496654066737   -2.05650324877068    1.09209585676872
H         4.81447854953256   -1.09309262302273    1.46200549974332
H         5.03891806602353   -2.78805397756197    1.88634529641920
H         6.19904184210312   -2.00871175366176    0.80254001553703
C         4.70718610210187   -3.83963274755447   -0.60290890556279
H         4.74657203052127   -4.53480062343648    0.22984457718307
H         5.69552749721809   -3.75809845636260   -1.04398314718559
H         4.01295126106316   -4.22831013637131   -1.33881627958030
C         4.15722342952247   -1.35564064962813   -1.16422273155830
O         3.04869756490894   -0.58025616318219   -0.68526517383216
C         5.39899572286232   -0.48274917359093   -1.31563820417019
H         6.24730807134941   -1.09793453993383   -1.59912504324101
H         5.22276289469401    0.25607887024046   -2.09141291456646
H         5.61851074765102    0.03915124893849   -0.39210271604662
C         3.74756999452280   -1.90298479621107   -2.53901713628288
H         2.85826607672239   -2.51787245992820   -2.43351299574976
H         3.49628246712982   -1.06477912710535   -3.18346516953086
H         4.55095731440165   -2.47196354931307   -2.99414320326510
H        -3.38910536368803   -3.97537429870266   -2.56934735004108
H        -5.18402507060725    1.46764551820209    1.29806271595968
C         0.23589999999995   -1.68140000000000    2.96030000000000
C        -0.97934116370921   -2.08349148111431    3.49707800002060
N         1.17954171170601   -1.91658408283628    3.92866886708648
C        -0.76615055303232   -2.49871552430259    4.82345839783218
H        -1.93123401648983   -2.07574772014296    2.99652656629368
C         0.57983799382332   -2.38450123525985    5.05478959061027
C         2.60586552558679   -1.79321926041396    3.81423918683101
H        -1.50387171732849   -2.86568024783200    5.51411122725266
H         1.15491165477147   -2.60462257434126    5.93426468951074
H         2.88057571390856   -1.77122703723392    2.76492417081094
H         3.08317280557225   -2.63880955122932    4.31064968613393
H         2.96135870586534   -0.87022827162772    4.27626054291859
97
 energy: -137.733797888704 gnorm: 0.038260914076 xtb: 6.4.1 (1a32961)
N        -0.92326244302257   -2.09362706177558   -0.27439340935703
C        -2.20258899198876   -1.68494248454253   -0.37373648576610
C        -3.11092331688107   -2.35337760609378   -1.20620608514772
C        -2.70124124169838   -3.45083048005203   -1.92800936617716
C        -1.37669410029595   -3.86903895837047   -1.80555778411978
C        -0.53977913981257   -3.15578458011136   -0.97492567209662
H         0.49393160339263   -3.44671878264153   -0.85036007507642
H        -1.01380305715018   -4.72855419200985   -2.34345531311168
H        -4.13003396182244   -2.01426931887459   -1.28857932050558
C        -2.56973685519136   -0.52747278567906    0.42419724103614
N        -1.58204414002630    0.04637726500576    1.14308727919376
C        -1.87648189830894    1.10622407153957    1.88909074613522
C        -3.14038990180222    1.65108491134967    1.98262749082520
C        -4.17235808298117    1.06621915145416    1.25149377170131
C        -3.87773394715542   -0.02476209890988    0.46536453255424
H        -4.66127971488919   -0.49318945424773   -0.10607150517364
H        -3.32073180181779    2.50374783007171    2.61529137746701
H        -1.04701925086620    1.53411888009836    2.42954889153244
Ir        0.42150000000001   -0.81650000000000    0.91330000000000
H         0.87260000000000   -2.23030000000000    1.54050000000000
B         0.47572844328909    0.45879654878615   -0.73008428839487
O         0.10021944181437   -0.00386517844407   -1.98415548360352
C        -0.02398248806923    1.09973339555710   -2.88329116186741
C         0.47628528603574    0.72492004853149   -4.27692828843302
H         1.48569563568495    0.33003756724968   -4.23995228166291
H         0.45096749889894    1.60245133734004   -4.91767542473430
H        -0.17272575197778   -0.03838696037581   -4.69809236052856
C        -1.52344432908915    1.43119381670457   -2.96452928547018
H        -1.71247755523221    2.23757788293163   -3.66606284508691
H        -2.05594715740826    0.54058498987475   -3.29137564808328
H        -1.89306301504692    1.70186835084012   -1.97746458814672
C         0.79869745815791    2.21656709787376   -2.16698282390248
O         0.75685137412901    1.80199518908482   -0.79945566129116
C         2.27523949175332    2.21439814016461   -2.58670035883956
H         2.68667596946052    1.22296497783403   -2.41704750221457
H         2.39174208182630    2.51129111517284   -3.62460080206489
H         2.81861446427040    2.91185684393794   -1.95389007863077
C         0.23713547260756    3.62971888941543   -2.31273728129716
H        -0.75592613400918    3.70982806607375   -1.88339062554350
H         0.89013385605872    4.32246051840905   -1.78830058752466
H         0.20381313060070    3.90323690504341   -3.36389095113816
B         1.55701977315479    0.65652514083049    1.86397882370703
O         2.92167511243509    0.63893559240960    2.06013974268807
C         3.35434238506597    1.93135079220453    2.49410275525121
C         4.52364348822824    1.81148893913066    3.46897726605426
H         4.27780059749683    1.17236789905066    4.30969468499002
H         5.37458618409642    1.37874158087929    2.95058984676320
H         4.79605397715725    2.79787707965377    3.83282022098988
C         3.80815763380084    2.67286654544495    1.22919923355140
H         4.19516677957296    3.66153084306232    1.45445155874883
H         4.58366461478018    2.08188057696000    0.74850306436744
H         2.96690284523661    2.73026445849958    0.54329120561575
C         2.04638424534634    2.53330852937898    3.09568810269529
O         1.02909361084937    1.81127482101606    2.39197891951418