53
 energy: -64.853387170870 gnorm: 0.000076750239 xtb: 6.4.1 (1a32961)
N        -0.94747683012744    4.03078633701146    0.16752198136195
C        -0.82674942407481    3.94531731862705    1.59738617984463
C        -1.83635083957769    4.81051709227020   -0.49937765741968
C        -1.68901600609478    4.59939007713392   -1.84433696525340
C        -0.67359990053768    3.63921566478373   -2.00067581959014
C        -0.22115514541181    3.31523377026543   -0.74122387868079
C         0.78838833265926    2.28993412857268   -0.36323245878042
O         0.52639849508593    1.09543635511377   -0.49590619596378
N         1.96943739469338    2.72353668718651    0.12329922339423
C         2.96433179350045    1.73639038647383    0.51071582264610
C         3.47084067237581    1.89910078217306    1.94476667366440
C         2.34378054697574    1.82352689321029    2.97329188086970
C         2.84546113308464    1.64789804281907    4.40808359273027
C         3.71234639381556    2.79421141347837    4.93455669797462
C         2.96976612945462    4.12305919168110    5.02551809825891
C         2.34725544348612    4.12219866754153    0.16223465570487
C         3.55547275221786    4.45469899026230   -0.72165720995012
C         3.31842232819746    4.16604261093178   -2.20477045735920
C         2.42724231806478    5.20517826230065   -2.88226081083625
C         2.25709701432359    4.92271200064824   -4.37343158207890
C         1.31915676030647    5.92565572608649   -5.03516200750637
H        -1.79741301572507    4.13022374430161    2.05560342186912
H        -0.11402843176141    4.68399341917911    1.97449886682286
H        -0.48815268601413    2.94773807656627    1.87477846011845
H        -2.51305187443891    5.45284126363183    0.02887515901733
H        -2.24590807954622    5.07007715391537   -2.63064751185024
H        -0.30716759415196    3.23240854186886   -2.92271521611913
H         3.80841179779923    1.77600554321300   -0.18490847321781
H         2.48297280254243    0.76143060113286    0.40009645791347
H         4.00954323822735    2.84166525653872    2.04391681205599
H         4.18097365445956    1.09046600279909    2.12916158043367
H         1.70520266032512    0.97070694743740    2.72757965873565
H         1.72644959145325    2.72007040925063    2.90968558209710
H         3.42325743175210    0.72189205028883    4.46509468181374
H         1.97940469355237    1.53425708340056    5.06513953209601
H         4.59432934810819    2.91016808874332    4.30261228115887
H         4.06294146515686    2.52018096972403    5.93282790481616
H         2.68485971968042    4.48125690198272    4.03973010164836
H         3.60302929037395    4.87718077409522    5.48801490229575
H         2.06961499189831    4.01528136109096    5.62712113255940
H         2.57976035842300    4.39790479243954    1.19559450515746
H         1.49498811301464    4.71302114210671   -0.17042934259421
H         4.42416957100030    3.89257917438210   -0.37693916668481
H         3.77907018234531    5.51512883721357   -0.59087235267177
H         2.86601141071810    3.17719996383037   -2.31512093453893
H         4.28284602669805    4.14481441611113   -2.71813522523015
H         2.86557920478371    6.19803996510438   -2.75364651185116
H         1.44108389489010    5.20966308457429   -2.41444465480639
H         1.85832657710633    3.91352507493844   -4.50404969528898
H         3.23283340462254    4.95610125491764   -4.86505172865151
H         0.33565806481312    5.88513474068024   -4.57171167579384
H         1.20985018415850    5.70763939449980   -6.09523305520142
H         1.70601464131777    6.93718357146792   -4.92987525913245
