53
 energy: -64.827096724134 gnorm: 0.072115217639 xtb: 6.4.1 (1a32961)
N        -1.17346000000000    4.70219000000000    0.04342000000000
C        -0.68581000000000    5.57453000000000    1.09366000000000
C        -2.28721000000000    5.05133000000000   -0.69712000000000
C        -2.75370000000000    3.92170000000000   -1.31809000000000
C        -1.83247000000000    2.89554000000000   -1.02588000000000
C        -0.77955000000000    3.40649000000000   -0.25802000000000
C         0.34927000000000    2.57664000000000    0.17772000000000
O         0.13188000000000    1.39452000000000    0.45345000000000
N         1.68731000000000    3.03803000000000    0.15956000000000
C         2.73966000000000    2.02414000000000    0.37712000000000
C         3.41363000000000    2.04351000000000    1.75222000000000
C         2.63483000000000    1.29457000000000    2.83295000000000
C         3.44252000000000    1.11265000000000    4.12733000000000
C         3.92049000000000    2.40302000000000    4.79874000000000
C         2.78357000000000    3.31902000000000    5.22156000000000
C         2.08029000000000    4.44289000000000    0.04895000000000
C         3.46405000000000    4.77823000000000   -0.52953000000000
C         3.66395000000000    4.43335000000000   -2.00946000000000
C         2.65036000000000    5.11737000000000   -2.92521000000000
C         2.92766000000000    4.82130000000000   -4.39590000000000
C         1.89544000000000    5.49506000000000   -5.28339000000000
H        -1.53697000000000    6.12007000000000    1.51763000000000
H         0.00895000000000    6.29264000000000    0.65463000000000
H        -0.21922000000000    4.97770000000000    1.87748000000000
H        -2.69833000000000    6.05047000000000   -0.65684000000000
H        -3.66175000000000    3.84000000000000   -1.90138000000000
H        -1.90157000000000    1.86488000000000   -1.34438000000000
H         3.51013000000000    2.17943000000000   -0.38171000000000
H         2.35829000000000    1.01853000000000    0.16701000000000
H         3.61131000000000    3.07292000000000    2.06636000000000
H         4.39125000000000    1.55173000000000    1.64317000000000
H         2.37378000000000    0.29367000000000    2.46357000000000
H         1.68946000000000    1.80594000000000    3.04102000000000
H         4.32318000000000    0.49422000000000    3.91098000000000
H         2.83718000000000    0.54151000000000    4.84207000000000
H         4.60499000000000    2.94708000000000    4.13881000000000
H         4.50393000000000    2.13530000000000    5.68870000000000
H         2.21507000000000    3.67811000000000    4.36035000000000
H         3.18287000000000    4.19407000000000    5.74570000000000
H         2.09880000000000    2.80180000000000    5.90103000000000
H         2.04714000000000    4.83755000000000    1.07184000000000
H         1.33245000000000    4.98157000000000   -0.52973000000000
H         4.25514000000000    4.30244000000000    0.06206000000000
H         3.61932000000000    5.85875000000000   -0.40990000000000
H         3.61841000000000    3.35101000000000   -2.16309000000000
H         4.67725000000000    4.74334000000000   -2.29410000000000
H         2.67731000000000    6.20004000000000   -2.75616000000000
H         1.64000000000000    4.77219000000000   -2.68556000000000
H         2.90146000000000    3.73675000000000   -4.57053000000000
H         3.93042000000000    5.16932000000000   -4.67038000000000
H         0.88667000000000    5.14525000000000   -5.04110000000000
H         2.09153000000000    5.26973000000000   -6.33540000000000
H         1.92135000000000    6.58173000000000   -5.15434000000000
53
 energy: -64.835954948130 gnorm: 0.033840947227 xtb: 6.4.1 (1a32961)
N        -1.14510815708140    4.71755577404934    0.03470014662834
C        -0.65754994369291    5.58847880063958    1.08092697676117
C        -2.29343378680490    5.02138618193224   -0.64523092674157
C        -2.72130108954507    3.90653081338211   -1.32008537672177
C        -1.79496791347529    2.89168680123232   -1.04597409122254
C        -0.78310297634071    3.41337070035928   -0.24004880681598
C         0.35968012819719    2.58338045331004    0.18853379302267
O         0.14298091814161    1.39962935695842    0.44525392272681
N         1.67356864998266    3.03092704063189    0.16454995308103
C         2.73044641913223    2.03884321610891    0.37357135674080
C         3.40731344365129    2.04557823204132    1.74960616558517
C         2.63280185920949    1.30274164087180    2.83557828906700
C         3.44102242607517    1.11496221065655    4.12525665114640
C         3.91767925687649    2.40342837243825    4.79866223195893
C         2.78256886690493    3.32358384490026    5.22459592947470
C         2.06651921146715    4.43317048782899    0.06499804939929
C         3.44698032022155    4.75507367747118   -0.52610640614812
C         3.65261613253166    4.42324230635672   -2.00619233902512
C         2.64938171600917    5.11240267491135   -2.92579486562058
C         2.92281921594607    4.82451473990641   -4.39840803451524
C         1.89379681804802    5.49711452007350   -5.29541085273309
H        -1.51240890825707    6.10986367116250    1.51694991642128
H         0.03766847511732    6.32974795526710    0.68507159753302
H        -0.18782315634960    4.99171449379107    1.85850051321126
H        -2.71282952875035    6.00949020331738   -0.59863318625916
H        -3.60847678191181    3.82632478613688   -1.92313212981342
H        -1.84228929485485    1.87393390440575   -1.39185225425284
H         3.49442874582999    2.20474730224672   -0.39129265187127
H         2.30433541206686    1.04826059915774    0.18537092115377
H         3.59421215729131    3.07402418632512    2.06260310382791
H         4.38151655324131    1.55647896537939    1.63525230482391
H         2.36855047021918    0.30939416327460    2.45940385470847
H         1.69250116855989    1.81616009742113    3.04543729414325
H         4.31854503976555    0.49894779609954    3.90071402717822
H         2.82934813309271    0.55214655880230    4.83734189174849
H         4.59596690852023    2.94247004695811    4.13232949377062
H         4.49848621766268    2.12839829300469    5.68525679588941
H         2.21631402423618    3.67392228571318    4.36392336192535
H         3.17737860188001    4.19538278341774    5.74733618872427
H         2.09922579038258    2.80384927265840    5.89555917096891
H         2.05315832660389    4.85827173762948    1.07864699650828
H         1.31730251171517    4.95010986376457   -0.53350398121892
H         4.23587699007349    4.27949071285871    0.06180020538197
H         3.58263632925282    5.83568705156039   -0.40521361219830
H         3.59760243266129    3.34437543444563   -2.16551337417031
H         4.66308651640585    4.73833491129113   -2.28781298603424
H         2.68139546022052    6.19299375428869   -2.75764111282192
H         1.64033448719328    4.76674154990129   -2.69120809972526
H         2.89860433923686    3.74287944948456   -4.56519353391718
H         3.92515263034601    5.17295624374982   -4.66370248316895
H         0.89048652665241    5.14821249293432   -5.05115791440721
H         2.08800784149465    5.27442942049871   -6.34371711884978
H         1.91950406494728    6.57847816699286   -5.16301496525786
53
 energy: -64.838604501674 gnorm: 0.009491828404 xtb: 6.4.1 (1a32961)
N        -1.12176550519091    4.72348413124191    0.04036296012126
C        -0.63891494365090    5.58795083040934    1.08988139922620
C        -2.27708894147143    5.00376214642170   -0.61696067368234
C        -2.68195930124117    3.89997791412065   -1.32261736485712
C        -1.74379039964442    2.89536200587644   -1.06633902988842
C        -0.76717725781934    3.42365158045670   -0.23143374274938
C         0.37930491661332    2.58601324036092    0.18950630523678
O         0.14618036810624    1.40029569511892    0.43290069302418
N         1.66893450303880    3.02535519328045    0.17394278323825
C         2.72183976934652    2.04237703797399    0.37767107844159
C         3.40401144018412    2.05652746999970    1.75167151129737
C         2.62420419872441    1.31491866221865    2.83434504484147
C         3.43266238452990    1.12026146796945    4.12079197155648
C         3.91534904616095    2.40567625944272    4.79643262307991
C         2.77920597398242    3.32599742385392    5.22611762726762
C         2.05241861818686    4.42557629856631    0.06950629707990
C         3.43028454620257    4.74240883891980   -0.52829500692092
C         3.63133507784255    4.41003009747855   -2.00799977583025
C         2.63629420779791    5.11100709528755   -2.92759652605376
C         2.91846633027408    4.82488135267890   -4.40047666362610
C         1.89283017976269    5.49937058255559   -5.30390057518811
H        -1.49213734994396    6.09972935251362    1.53549137917745
H         0.05315577470925    6.34230721177376    0.71245638172499
H        -0.15310446322810    4.99453750183139    1.86000122730196
H        -2.71935113952091    5.97813866183648   -0.54656383658485
H        -3.55849993177062    3.81866629477608   -1.93471947670665
H        -1.76451099369727    1.88854518295920   -1.43922017226369
H         3.47877704680115    2.20912947671501   -0.39090897003402
H         2.27008737882007    1.06095962802618    0.20636760440997
H         3.58286327269304    3.08640687573800    2.06066943295465
H         4.37466614137946    1.56801816414400    1.63277996463813
H         2.35316724017171    0.32649445302957    2.45468251493525
H         1.68997825504411    1.83522462005985    3.04751404191340
H         4.30747756715414    0.50544195238014    3.89117220829161
H         2.81736880608234    0.56110801940447    4.83014159531190
H         4.58879385753302    2.94345748724321    4.12672195742962
H         4.49479038113443    2.12515278033997    5.68023418201938
H         2.21495892099549    3.67339383713171    4.36536131769457
H         3.17382067535983    4.19420203679019    5.74889249499818
H         2.09745152554569    2.80312161359656    5.89283951507236
H         2.05056652457157    4.86859767164467    1.07555345379059
H         1.29717652017143    4.92524066543125   -0.53712879745014
H         4.21531251248615    4.26204808369225    0.05608012618382
H         3.55732534573698    5.82194456253552   -0.40524716499959
H         3.56480550900868    3.33336164626855   -2.17293078115077
H         4.64338839383767    4.72077277843828   -2.28255140806264
H         2.67735527358131    6.18975432729837   -2.75648717906281
H         1.62541430479900    4.76924164990456   -2.69924365249124
H         2.89453314195013    3.74530452799927   -4.56652308789275
H         3.92078249541331    5.17594836970579   -4.65778317375027
H         0.89099543579228    5.15018472241273   -5.06366005040630
H         2.09283467140795    5.27602685745617   -6.34857987935355
H         1.91964169424553    6.57847366269104   -5.17103270325312
53
 energy: -64.839549999774 gnorm: 0.009156038884 xtb: 6.4.1 (1a32961)
N        -1.11180690821710    4.72115578788842    0.05852993405741
C        -0.62836557752963    5.57925205368262    1.11188706675666
C        -2.26630008803358    4.99738724366809   -0.59713747254607
C        -2.65159315047895    3.90456958781737   -1.33157742773610
C        -1.70255939275943    2.90578779056222   -1.08683209464531
C        -0.74736067665047    3.43025437614840   -0.22902106124027
C         0.39383502088553    2.58320155404564    0.18988774175576
O         0.14401756520848    1.39477712043589    0.41773707675402
N         1.67370898004390    3.02153990357836    0.18488720403032
C         2.72571435994878    2.03970636756484    0.38128377869961
C         3.40540740172918    2.06427080574964    1.75545356102570
C         2.61706950888497    1.32815360512737    2.83550873144264
C         3.42307219326432    1.12388895801935    4.12118019744111
C         3.91061513978412    2.40784660699636    4.79668100763955
C         2.77529389920283    3.32928463709658    5.22884487095028
C         2.04528373715935    4.42191144504262    0.07017919697922
C         3.41989030055823    4.73626757000326   -0.53368311154830
C         3.61089028131786    4.39852416866612   -2.01308104857185
C         2.62237939760519    5.11026433337091   -2.93217869889083
C         2.91125721713036    4.82593191052259   -4.40468651486486
C         1.89151766044554    5.50201164983912   -5.31481118582021
H        -1.47981809565731    6.08325240333639    1.56925887457071
H         0.05560672911327    6.34247036481255    0.73493807526769
H        -0.12644328019916    4.98567489785230    1.87263193797304
H        -2.73048642486034    5.96090045911869   -0.50203156023643
H        -3.51907368999793    3.82461177960233   -1.95659138222166
H        -1.69868849372091    1.90791653937495   -1.48519640603729
H         3.47818944929274    2.19953650075300   -0.39135868839738
H         2.26713868332505    1.06049330406973    0.22231778182580
H         3.57804090465315    3.09642429371981    2.05948886904224
H         4.37622610001345    1.57711216637157    1.64239216915995
H         2.33708392396343    0.34348581275865    2.45323708298989
H         1.68755771367236    1.85736719966784    3.04829209861752
H         4.29481931554160    0.50642618809497    3.88869493534786
H         2.80514652605155    0.56689447011409    4.82941632630157
H         4.58231102533683    2.94510918110549    4.12542430043152
H         4.49091533870149    2.12503021151049    5.67851117295863
H         2.21185197768447    3.67777272517309    4.36804849358477
H         3.17066069355996    4.19591238010695    5.75306826939643
H         2.09364535619033    2.80439869883979    5.89402055528456
H         2.04440883069701    4.87177053261836    1.07193529762936
H         1.28467690066648    4.91105469624283   -0.53794339481143
H         4.20379304776293    4.25261408495062    0.04837549531760
H         3.54913117575748    5.81483521984665   -0.41395747391870
H         3.52942673939600    3.32268579283865   -2.17727250014458
H         4.62592654389068    4.69634259220994   -2.28925074608736
H         2.67125821602309    6.18780866643087   -2.75771045910321
H         1.60818745262437    4.77494792804620   -2.70924796077329
H         2.88763161421458    3.74691374008600   -4.57205204565767
H         3.91482794715745    5.17796750252535   -4.65474652658852
H         0.88819671602364    5.15326434682237   -5.08053786037759
H         2.09891222737380    5.27792322837983   -6.35799463811692
H         1.91948196624907    6.58091461679391   -5.18132184489549
53
 energy: -64.840522469980 gnorm: 0.011940312710 xtb: 6.4.1 (1a32961)
N        -1.10787096899691    4.71111401345020    0.09300002311368
C        -0.62012967692385    5.55998872721587    1.15151508374206
C        -2.25420111484183    4.99316111629503   -0.57324640521378
C        -2.61450812560666    3.91883511455169   -1.34828584329158
C        -1.65286620577382    2.92578281632068   -1.12081070920170
C        -0.72108964452862    3.43585230127438   -0.23115507164139
C         0.41161775212134    2.57585427157140    0.18392190326127
O         0.14466910503047    1.38643268825283    0.39630213197395
N         1.68573169392655    3.01629823584069    0.19783862874272
C         2.73752383936510    2.03390064777227    0.38834034837591
C         3.41234386437705    2.07225341600278    1.76300422201274
C         2.60924552585685    1.34537759539261    2.83855912133646
C         3.40942020229972    1.13002156851187    4.12502192383982
C         3.90285051246744    2.41182647195608    4.80042630302002
C         2.76871540157308    3.33458266857021    5.23384639843603
C         2.04216886570689    4.41795852579820    0.06903773074832
C         3.41083968834981    4.73031233635970   -0.54436625451160
C         3.58225153832580    4.38163445768105   -2.02339570671389
C         2.60255977095113    5.10955964698651   -2.94032472620138
C         2.89942650812545    4.82810710821075   -4.41210666492792
C         1.88883024521918    5.50666190644170   -5.33078275547985
H        -1.46863921984454    6.05212838297412    1.62774033563514
H         0.05016066211613    6.33455807863491    0.76927956320707
H        -0.09725081712860    4.96418519610407    1.89737407349099
H        -2.74272466358361    5.94253816795131   -0.44616058255483
H        -3.46929647536588    3.84477120953597   -1.99221606916594
H        -1.61941556730611    1.94146077674237   -1.55243051674091
H         3.48589964849035    2.18165971573062   -0.38970340810294
H         2.27438833617565    1.05586480771169    0.24159918124847
H         3.57856507656016    3.10783258064975    2.05909701346273
H         4.38489054547529    1.58617131860627    1.66408203009378
H         2.31456016582795    0.36564976594977    2.45372109605222
H         1.68678249530820    1.88892300983998    3.04888733040550
H         4.27691271599569    0.50703747908004    3.89139500390574
H         2.78714193640236    0.57590215113105    4.83161391542756
H         4.57344749867832    2.94806343465384    4.12732167063582
H         4.48468291520783    2.12816617738374    5.68070983162174
H         2.20675575358603    3.68648201759526    4.37299297242355
H         3.16485747430529    4.19968977856423    5.76060991945055
H         2.08543871720094    2.80859735480662    5.89712792812226
H         2.03981652220400    4.87526362715018    1.06607628768683
H         1.27466396663878    4.89470928903825   -0.53961785743514
H         4.19610117272912    4.24385571929797    0.03348685156929
H         3.54645123254611    5.80819850590081   -0.43146923421114
H         3.47539042489480    3.30653550395757   -2.18214901596983
H         4.60178976412373    4.65565949667691   -2.30856100475024
H         2.66215486811305    6.18562932384302   -2.76027793891614
H         1.58334938447403    4.78443270457053   -2.72377355623024
H         2.87591789194771    3.74929877292613   -4.58199516493726
H         3.90530636609963    5.17998809028390   -4.65316967271613
H         0.88226597775866    5.15916929095031   -5.10680921350892
H         2.10693230920596    5.28203380643213   -6.37231468511933
H         1.91768414413888    6.58584883087016   -5.19691676549996
53
 energy: -64.841432612536 gnorm: 0.011034001517 xtb: 6.4.1 (1a32961)
N        -1.10979777902441    4.69419974216289    0.13365838535283
C        -0.61724201681105    5.53095989220757    1.19927759175923
C        -2.24344493140930    4.99112729497998   -0.54952194846537
C        -2.57764191935552    3.94162659285600   -1.37077638720136
C        -1.60653297863409    2.95241383390298   -1.16350914345672
C        -0.69621519493618    3.43834797781756   -0.23815391342616
C         0.42748276744957    2.56703845752929    0.17679904394625
O         0.15220203214004    1.37753202311513    0.37437607856679
N         1.70039696618515    3.01078475089721    0.20816144748299
C         2.75312295913563    2.02787999145131    0.39668757059318
C         3.42195705056514    2.07820848145004    1.77228871763303
C         2.60400003082060    1.36270461494575    2.84468731129856
C         3.39554051699865    1.13742281936157    4.13377990759542
C         3.89320493347794    2.41741254047848    4.80884417996287
C         2.76048928057650    3.34181900089635    5.24150386486543
C         2.04506692274595    4.41400089749707    0.06672952494329
C         3.40623865131601    4.72426255943550   -0.55989311871272
C         3.55252063597111    4.36239342084769   -2.03838680266320
C         2.58231400188499    5.10874998192757   -2.95145004357354
C         2.88514176390971    4.83132392077009   -4.42271766442262
C         1.88430459796113    5.51344942123916   -5.34858922527346
H        -1.46319821396407    6.00811521311361    1.69606475314170
H         0.03851157510465    6.31761043850764    0.81323830775896
H        -0.07603193314940    4.93028062426521    1.92795599309397
H        -2.75035367312151    5.92621545349047   -0.39129894368129
H        -3.41915272193128    3.87923366500314   -2.03383733844454
H        -1.54835885728844    1.98452179764410   -1.62805719822481
H         3.49982565596310    2.16407682781464   -0.38535829613326
H         2.28822111379775    1.04986269478388    0.25822845531328
H         3.58526865671125    3.11683610621397    2.05968956055924
H         4.39613246522343    1.59161462346411    1.68961175630339
H         2.29437179196851    0.38782342999626    2.45849426572476
H         1.68885554860844    1.92105290439321    3.05035022107479
H         4.25919613756004    0.50801872560109    3.90220357558693
H         2.76732902738233    0.58668407599321    4.83804190049336
H         4.56406894268474    2.95219894739032    4.13459692803991
H         4.47573359772251    2.13403600157117    5.68876168510809
H         2.20146880285800    3.69799907052313    4.38002901816475
H         3.15686354798454    4.20538552508950    5.77148184218283
H         2.07374243407890    2.81588517356381    5.90188146495479
H         2.04319498921096    4.87778960840186    1.06013783728124
H         1.27010397373720    4.88056147537171   -0.53992632416423
H         4.19635676927967    4.23705737456024    0.01133839593839
H         3.54952439149390    5.80204727239020   -0.45561507122441
H         3.41454708443959    3.28854426982642   -2.18756953046363
H         4.57643596655993    4.60643191620954   -2.33823885320774
H         2.65349559053232    6.18312500390333   -2.76430163648248
H         1.55794308764087    4.79511659391286   -2.74035968835290
H         2.86076886568028    3.75262922690697   -4.59560631289522
H         3.89366944768611    5.18146152555717   -4.65582587690239
H         0.87428813649910    5.16759877559751   -5.13583910921358
H         2.11274695572466    5.28950561509457   -6.38861126595886
H         1.91383255235460    6.59284182807593   -5.21356589217546
53
 energy: -64.842343459262 gnorm: 0.009443520512 xtb: 6.4.1 (1a32961)
N        -1.11313608499534    4.67145639655727    0.17220556499663
C        -0.61767486952648    5.49107479983137    1.24931581104323
C        -2.23298326300858    4.99051478222322   -0.52700075427329
C        -2.54267052448909    3.97172601534147   -1.39491449455123
C        -1.56679316689188    2.98370238700253   -1.20941706527560
C        -0.67478807891422    3.43776601321237   -0.25029746547280
C         0.44086783706427    2.55754672282069    0.16732368144626
O         0.16571748150275    1.36923798897460    0.35610636334912
N         1.71508429619422    3.00498043134545    0.21271613427732
C         2.76977143426628    2.02337254816520    0.40570976425476
C         3.43200966466134    2.08189093680120    1.78298136489795
C         2.60076568069362    1.37845075979722    2.85365694929247
C         3.38220711796195    1.14700569821975    4.14697817894121
C         3.88216576518142    2.42517009925792    4.82279344648786
C         2.75060711208064    3.35160879909678    5.25250527869442
C         2.05333501534458    4.40959890833517    0.06378531161081
C         3.40584078699237    4.71712069701388   -0.58009574882428
C         3.52397228248773    4.34169292063095   -2.05766043962817
C         2.56351152317200    5.10721802275715   -2.96560827088349
C         2.86920877418116    4.83535764677141   -4.43706067520513
C         1.87726920286259    5.52302464004562   -5.36707671991512
H        -1.46230023865237    5.95000996570008    1.76613708360625
H         0.02504709217309    6.29109136648646    0.86752885145214
H        -0.06289249178190    4.88153488773336    1.95926596945909
H        -2.75123733506632    5.91236309694016   -0.34027662654291
H        -3.37124539409053    3.92777829866484   -2.07555390860699
H        -1.48929532811248    2.03520307065514   -1.70858827661368
H         3.51821741695462    2.15285696228460   -0.37657932024625
H         2.30656638411904    1.04422150034601    0.26991556040435
H         3.59742746582209    3.12254085829618    2.06214704850356
H         4.40609719968625    1.59197807893449    1.71426392927294
H         2.27907861152556    0.40749237831124    2.46767638468242
H         1.69235446908551    1.94973798008018    3.05333581265537
H         4.24300999913059    0.51133515266883    3.92093834797239
H         2.74662112170804    0.60003942812106    4.84791795915900
H         4.55493085248808    2.95812942680820    4.14871044584854
H         4.46362950553369    2.14215001322650    5.70371452373397
H         2.19608518099061    3.71260855627623    4.38983130023832
H         3.14679829017010    4.21308629004071    5.78648803577125
H         2.05887502658377    2.82642731376854    5.90859995735854
H         2.05670322604021    4.87766116754022    1.05526589283742
H         1.27078632961825    4.87030834363929   -0.53742519131835
H         4.20375347337797    4.23151675595345   -0.01751927882882
H         3.55561356301428    5.79529862559398   -0.48526195934946
H         3.35303050601854    3.27042421554278   -2.19476336817079
H         4.55073120120380    4.55348017548470   -2.37479480862354
H         2.64659745204140    6.17952163486873   -2.77021562733646
H         1.53450738397045    4.80526076279859   -2.75859305657575
H         2.84233736060131    3.75698848587906   -4.61355704085185
H         3.88035210847577    5.18225216505212   -4.66416681893259
H         0.86441291612001    5.17901213936643   -5.16452950332090
H         2.11380656828310    5.30181252937733   -6.40602009231509
H         1.90782209614643    6.60218115935922   -5.22894844058458
53
 energy: -64.843315076854 gnorm: 0.010010786205 xtb: 6.4.1 (1a32961)
N        -1.11350413928847    4.64518357386908    0.20301072451768
C        -0.61900523396466    5.44013825754954    1.29873087641208
C        -2.22187967060461    4.99067418338422   -0.50506729777362
C        -2.50874064322077    4.00760206824372   -1.41899071878276
C        -1.53057824856735    3.01849256026250   -1.25871461611797
C        -0.65635605551379    3.43538870613309   -0.26677266578326
C         0.45216173412242    2.54839157401398    0.15718034430190
O         0.18264181317670    1.36054656897447    0.33981685566573
N         1.72844847426370    2.99884484914822    0.21105496558612
C         2.78580732624930    2.02079052313410    0.41442293720899
C         3.44036523203291    2.08371737811765    1.79481479792443
C         2.59805709021553    1.39300268127576    2.86552811959814
C         3.36896863381036    1.15912196279076    4.16439835023613
C         3.86978404259977    2.43547682415040    4.84219743992906
C         2.73947736441267    3.36465783288469    5.26801817197587
C         2.06589469112716    4.40433341491047    0.06057700432840
C         3.40845583749909    4.70855464079823   -0.60512146353061
C         3.49750536022917    4.31987891161205   -2.08109240365582
C         2.54656824922162    5.10435444828099   -2.98302153884420
C         2.85182480918692    4.83945955055330   -4.45565248153481
C         1.86713721501176    5.53581525084086   -5.38581540584295
H        -1.46418156920144    5.87696432111536    1.83405539033857
H         0.01364408596120    6.25530035850009    0.93296284457107
H        -0.05528203608679    4.81620078607368    1.98790916869961
H        -2.74739414848682    5.90053542328923   -0.28984989562991
H        -3.32599615855674    3.98800604182239   -2.11363290676377
H        -1.43927756947697    2.09213422089141   -1.79445550431852
H         3.53960626518775    2.15034202706510   -0.36355156718357
H         2.32756594510462    1.03923405431667    0.27618522623170
H         3.61339817155393    3.12509028456441    2.06701417645391
H         4.41167531561388    1.58662531006506    1.73574189833159
H         2.26826437345309    0.42444449847653    2.48161277382172
H         1.69523526919864    1.97452379585258    3.05845139612493
H         4.22799899565540    0.51795772502173    3.94655986749261
H         2.72504455926863    0.61627817270235    4.86122883387588
H         4.54630544115363    2.96647017700634    4.17012195826481
H         4.44789254410274    2.15159197046501    5.72526960737961
H         2.19091457286258    3.73092526278910    4.40375260244173
H         3.13560707838158    4.22312866719902    5.80681936644197
H         2.04169058137277    2.84054269910811    5.91850308216053
H         2.08173634739543    4.87281931140366    1.05231125442694
H         1.27518120534282    4.86507633612263   -0.53010495491586
H         4.21617016899920    4.22675681408295   -0.05264386397619
H         3.56217596446246    5.78745546451626   -0.52024663190512
H         3.29477177470075    3.25287536092422   -2.20499428871456
H         4.52474034085678    4.50024172035430   -2.41542799026575
H         2.64191726362495    6.17418140069535   -2.77901159751037
H         1.51364601927390    4.81395590662335   -2.77849183492358
H         2.82017927243287    3.76186936872232   -4.63700542438441
H         3.86545764061874    5.18171711749442   -4.67896867484837
H         0.85216004966468    5.19401446729567   -5.19159905530024
H         2.10874426577318    5.32002455988514   -6.42449226253196
H         1.89988408779353    6.61411061462750   -5.24163498970286
53
 energy: -64.844403518841 gnorm: 0.009959496609 xtb: 6.4.1 (1a32961)
N        -1.10855066406307    4.61599586315644    0.22674492523174
C        -0.61919489772602    5.37531122506129    1.35043440593405
C        -2.20827371934442    4.99029651431781   -0.48118120984910
C        -2.47244929483216    4.04908476226872   -1.44348088073050
C        -1.49397792654838    3.05681601586915   -1.31116256696314
C        -0.63859890291887    3.43241701894884   -0.28808103300624
C         0.46438371209573    2.53932185155299    0.14142226626330
O         0.20114918204731    1.35179703314534    0.32355235964051
N         1.74148301729215    2.99236517960400    0.20262142038415
C         2.80134240965042    2.02008916958648    0.42276185517800
C         3.44617689187728    2.08462823420335    1.80829431554501
C         2.59325379294029    1.40847248869201    2.88014595837089
C         3.35390823966010    1.17484064659082    4.18550043793468
C         3.85563265077794    2.44888365767435    4.86683163889718