101
 energy: -151.822280990249 gnorm: 0.004434460660 xtb: 6.4.1 (1a32961)
N        -0.96510000000000   -2.11530000000000   -0.24090000000000
C        -2.24700000000000   -1.69840000000001   -0.36220000000001
C        -3.14039999999999   -2.36820000000000   -1.21200000000000
C        -2.70220000000000   -3.47560000000000   -1.93050000000001
C        -1.37779999999999   -3.89880000000000   -1.78760000000001
C        -0.54290000000001   -3.18670000000002   -0.93510000000001
H         0.49810000000000   -3.45630000000000   -0.78940000000000
H        -0.99570000000000   -4.76030000000000   -2.32770000000001
H        -4.16500000000000   -2.02890000000000   -1.31830000000000
C        -2.62130000000000   -0.50950000000001    0.44099999999999
N        -1.62600000000000    0.07330000000000    1.16020000000000
C        -1.89679999999999    1.15240000000000    1.91690000000000
C        -3.17230000000002    1.70329999999999    1.99650000000000
C        -4.20509999999999    1.11740000000000    1.26270000000000
C        -3.92610000000000    0.00250000000001    0.47819999999999
H        -4.71960000000001   -0.46420000000000   -0.09520000000000
H        -3.34630000000000    2.57510000000000    2.62070000000000
H        -1.04450000000000    1.57420000000000    2.43690000000000
Ir        0.42150000000000   -0.81650000000000    0.91330000000000
H         0.87260000000000   -2.23030000000000    1.54050000000000
B         0.50670000000000    0.41560000000000   -0.81540000000000
O         0.19500000000000   -0.04699999999999   -2.09150000000000
C         0.00650000000000    1.10040000000000   -2.95430000000000
C         0.49020000000001    0.74740000000000   -4.35780000000000
H         1.51610000000000    0.37380000000000   -4.33700000000000
H         0.44730000000000    1.62240000000000   -5.01670000000000
H        -0.14740000000000   -0.03390000000000   -4.78430000000000
C        -1.50120000000000    1.39560000000000   -2.96670000000000
H        -1.75370000000000    2.21460000000000   -3.64850000000000
H        -2.03200000000000    0.49450000000000   -3.28930000000000
H        -1.85170000000000    1.65210000000000   -1.96220000000000
C         0.84230000000000    2.20670000000000   -2.22040000000000
O         0.75200000000000    1.78260000000000   -0.83690000000000
C         2.32930000000000    2.18620000000000   -2.59899999999999
H         2.74130000000000    1.18500000000000   -2.45750000000000
H         2.48870000000000    2.51300000000000   -3.63180000000000
H         2.87200000000000    2.86270000000000   -1.93200000000000
C         0.28440000000000    3.62290000000000   -2.33660000000000
H        -0.72650000000000    3.69040000000000   -1.92910000000000
H         0.92130000000000    4.31480000000000   -1.77610000000000
H         0.26430000000000    3.94810000000000   -3.38320000000000
B         1.56300000000000    0.60960000000000    1.84840000000000
O         2.92780000000001    0.55230000000000    2.15020000000000
C         3.36330000000000    1.88660000000000    2.50260000000000
C         4.53139999999999    1.78590000000000    3.47739999999999
H         4.27910000000000    1.16090000000000    4.33689999999999
H         5.39390000000000    1.33790000000000    2.97340000000000
H         4.82390000000000    2.77870000000000    3.83820000000000
C         3.79700000000001    2.56850000000000    1.19670000000000
H         4.20020000000000    3.57090000000000    1.37680000000000
H         4.56740000000000    1.95560000000000    0.72110000000000
H         2.95240000000000    2.63260000000000    0.50540000000000
C         2.05040000000000    2.50090000000000    3.09320000000000
O         1.03750000000000    1.81620000000000    2.31910000000000
C         1.89100000000001    4.00450000000000    2.88650000000001
H         1.87290000000000    4.25440000000000    1.82410000000000
H         0.94939999999999    4.34260000000000    3.33169999999999
H         2.71079999999999    4.55150000000000    3.36629999999999
C         1.82469999999999    2.13199999999999    4.56520000000001
H         1.92610000000000    1.05330000000000    4.71320000000000
H         2.52610000000000    2.65280000000000    5.22540000000000
H         0.80629999999999    2.41580000000000    4.84900000000000
B         2.27820000000000   -1.33090000000000    0.17410000000000
O         2.89460000000000   -2.57740000000000    0.38450000000000
C         4.26930000000000   -2.48200000000000   -0.07209999999999
C         5.10900000000000   -2.05380000000000    1.14010000000001
H         4.76350000000000   -1.08740000000000    1.51750000000000
H         4.98050000000000   -2.79470000000000    1.93589999999999
H         6.17420000000000   -1.99290000000000    0.89300000000000
C         4.71950000000000   -3.84660000000000   -0.58470000000000
H         4.75280000000000   -4.56130000000000    0.24420000000000
H         5.72330000000000   -3.78370000000000   -1.02010000000000
H         4.03500000000000   -4.23600000000000   -1.34170000000000
C         4.16440000000000   -1.36220000000000   -1.16300000000000
O         3.08520000000000   -0.55030000000000   -0.65400000000000
C         5.40720000000001   -0.48870000000000   -1.31549999999999
H         6.27320000000000   -1.09009999999999   -1.61530000000000
H         5.23300000000000    0.26930000000000   -2.08590000000001
H         5.64270000000000    0.02649999999999   -0.38240000000000
C         3.71800000000000   -1.89830000000000   -2.53109999999999
H         2.82530000000000   -2.52160000000000   -2.42740000000000
H         3.46090000000000   -1.05250000000001   -3.17550000000000
H         4.50569999999999   -2.48290000000001   -3.01790000000001
H        -3.38500000000001   -4.00130000000000   -2.59309999999999
H        -5.21400000000000    1.52080000000001    1.29960000000002
C         0.23590000000000   -1.68140000000000    2.96030000000000
C        -1.01985263416670   -2.00953746657671    3.50583460461234
C         1.23302231423794   -1.80425552642900    3.94217850692490
C        -1.20684329454758   -2.28382275874383    4.87198671924035
N        -2.23808709912010   -2.20906902178178    2.88682179774218
Br        3.08253544259831   -1.87298293610848    3.54869541127002
C         1.04939613123178   -2.03723863930109    5.30874039057120
C        -0.20758477552777   -2.27994236663504    5.82624966586636
O        -2.50692089873493   -2.62863219228392    5.06524202221325
C        -3.05775687179580   -2.57580556984246    3.82196999165981
H         1.92035452875610   -2.08927334620086    5.94935829625937
H        -0.37896916170732   -2.51192152508056    6.86496852458521
C        -4.47380702752853   -2.98428860970702    3.72926380355679
H        -4.53516777412034   -3.99978119054744    3.33575740939303
H        -5.02616372991162   -2.31509261291750    3.07271166375344
H        -4.89494954982049   -2.97049286131512    4.73459718809158
