      -----------------------------------------------------------      
     |                   =====================                   |     
     |                           x T B                           |     
     |                   =====================                   |     
     |                         S. Grimme                         |     
     |          Mulliken Center for Theoretical Chemistry        |     
     |                    University of Bonn                     |     
      -----------------------------------------------------------      

   * xtb version 6.4.1 (1a32961) compiled by 'knkr256@seskscpg007.prim.scp' on 2021-10-19

   xtb is free software: you can redistribute it and/or modify it under
   the terms of the GNU Lesser General Public License as published by
   the Free Software Foundation, either version 3 of the License, or
   (at your option) any later version.
   
   xtb is distributed in the hope that it will be useful,
   but WITHOUT ANY WARRANTY; without even the implied warranty of
   MERCHANTABILITY or FITNESS FOR A PARTICULAR PURPOSE.  See the
   GNU Lesser General Public License for more details.
   
   Cite this work as:
   * C. Bannwarth, E. Caldeweyher, S. Ehlert, A. Hansen, P. Pracht,
     J. Seibert, S. Spicher, S. Grimme, WIREs Comput. Mol. Sci., 2020, 11,
     e01493. DOI: 10.1002/wcms.1493
   
   for GFN2-xTB:
   * C. Bannwarth, S. Ehlert and S. Grimme., J. Chem. Theory Comput., 2019,
     15, 1652-1671. DOI: 10.1021/acs.jctc.8b01176
   for GFN1-xTB:
   * S. Grimme, C. Bannwarth, P. Shushkov, J. Chem. Theory Comput., 2017,
     13, 1989-2009. DOI: 10.1021/acs.jctc.7b00118
   for GFN0-xTB:
   * P. Pracht, E. Caldeweyher, S. Ehlert, S. Grimme, ChemRxiv, 2019, preprint.
     DOI: 10.26434/chemrxiv.8326202.v1
   for GFN-FF:
   * S. Spicher and S. Grimme, Angew. Chem. Int. Ed., 2020, 59, 15665-15673.
     DOI: 10.1002/anie.202004239
   
   for ALPB and GBSA implicit solvation:
   * S. Ehlert, M. Stahn, S. Spicher, S. Grimme, J. Chem. Theory Comput.,
     2021, 17, 4250-4261. DOI: 10.1021/acs.jctc.1c00471
   
   for DFT-D4:
   * E. Caldeweyher, C. Bannwarth and S. Grimme, J. Chem. Phys., 2017,
     147, 034112. DOI: 10.1063/1.4993215
   * E. Caldeweyher, S. Ehlert, A. Hansen, H. Neugebauer, S. Spicher,
     C. Bannwarth and S. Grimme, J. Chem. Phys., 2019, 150, 154122.
     DOI: 10.1063/1.5090222
   * E. Caldeweyher, J.-M. Mewes, S. Ehlert and S. Grimme, Phys. Chem. Chem. Phys.
     2020, 22, 8499-8512. DOI: 10.1039/D0CP00502A
   
   for sTDA-xTB:
   * S. Grimme and C. Bannwarth, J. Chem. Phys., 2016, 145, 054103.
     DOI: 10.1063/1.4959605
   
   in the mass-spec context:
   * V. Asgeirsson, C. Bauer and S. Grimme, Chem. Sci., 2017, 8, 4879.
     DOI: 10.1039/c7sc00601b
   * J. Koopman and S. Grimme, ACS Omega 2019, 4, 12, 15120-15133.
     DOI: 10.1021/acsomega.9b02011
   
   for metadynamics refer to:
   * S. Grimme, J. Chem. Theory Comput., 2019, 155, 2847-2862
     DOI: 10.1021/acs.jctc.9b00143
   
   for SPH calculations refer to:
   * S. Spicher and S. Grimme, J. Chem. Theory Comput., 2021, 17, 1701-1714
     DOI: 10.1021/acs.jctc.0c01306
   
   with help from (in alphabetical order)
   P. Atkinson, C. Bannwarth, F. Bohle, G. Brandenburg, E. Caldeweyher
   M. Checinski, S. Dohm, S. Ehlert, S. Ehrlich, I. Gerasimov, J. Koopman
   C. Lavigne, S. Lehtola, F. März, M. Müller, F. Musil, H. Neugebauer
   J. Pisarek, C. Plett, P. Pracht, J. Seibert, P. Shushkov, S. Spicher
   M. Stahn, M. Steiner, T. Strunk, J. Stückrath, T. Rose, and J. Unsleber
   
 * started run on 2022/01/14 at 15:19:50.373     

           -------------------------------------------------
          |                Calculation Setup                |
           -------------------------------------------------

          program call               : xtb xtbopt.xyz --sp --alpb thf -P 6
          hostname                   : seskscpg007.prim.scp
          coordinate file            : xtbopt.xyz
          omp threads                :                     6
          number of atoms            :                   118
          number of electrons        :                   326
          charge                     :                     0
          spin                       :                   0.0
          first test random number   :      0.81645748130925

   ID    Z sym.   atoms
    1    7 N      1, 11, 92
    2    6 C      2-6, 10, 12-15, 23, 24, 28, 32, 34, 38, 44, 45, 49, 53, 55,
                  59, 65, 66, 70, 74, 76, 80, 86-89, 91, 93, 95, 97, 99, 101,
                  106-108, 110, 112, 115
    3    1 H      7-9, 16-18, 20, 25-27, 29-31, 35-37, 39-41, 46-48, 50-52,
                  56-58, 60-62, 67-69, 71-73, 77-79, 81-85, 90, 94, 98, 100,
                  102-105, 109, 111, 113, 114
    4   77 Ir     19
    5    5 B      21, 42, 63, 96
    6    8 O      22, 33, 43, 54, 64, 75
    7    9 F      116-118

molecular fragmentation (1/2 indicates fragments):
111111111111111111111111111111111111111111111111111111111111111111111111
1111111111111222222222222222222222222222222222
# atoms in fragment 1/2:    85    33
 fragment masses (1/2) :      730.32      286.08
CMA distance (Bohr)    :  10.873
constraining FC (au)   :  0.0500

           -------------------------------------------------
          |                 G F N 2 - x T B                 |
           -------------------------------------------------

        Reference                      10.1021/acs.jctc.8b01176
      * Hamiltonian:
        H0-scaling (s, p, d)           1.850000    2.230000    2.230000
        zeta-weighting                 0.500000
      * Dispersion:
        s8                             2.700000
        a1                             0.520000
        a2                             5.000000
        s9                             5.000000
      * Repulsion:
        kExp                           1.500000    1.000000
        rExp                           1.000000
      * Coulomb:
        alpha                          2.000000
        third order                    shell-resolved
        anisotropic                    true
        a3                             3.000000
        a5                             4.000000
        cn-shift                       1.200000
        cn-exp                         4.000000
        max-rad                        5.000000

      * Solvation model:               ALPB
        Solvent                        thf
        Parameter file                 internal GFN2-xTB/ALPB
        Dielectric constant                7.6000E+00
        Reference state                gsolv [1 M gas/solution]
        Free energy shift                  5.3248E-03 Eh       3.3414E+00 kcal/mol
        Temperature                        2.9815E+02 K
        Density                            8.8300E-01 kg/L
        Solvent mass                       7.2106E+01 g/mol
        Interaction kernel             P16
        Born radius scaling (c1)           1.7311E+00
        Born radii integrator          GBOBC
        Born offset                        0.0000E+00 a0       0.0000E+00 AA
        H-bond correction              true
        Ion screening                  false
        Surface tension                    1.0000E-05 Eh       1.5569E+01 dyn/cm
        Grid points                               230 per atom
q/qsh data taken from xtbrestart
CAMM data taken from xtbrestart

          ...................................................
          :                      SETUP                      :
          :.................................................:
          :  # basis functions                 307          :
          :  # atomic orbitals                 306          :
          :  # shells                          180          :
          :  # electrons                       326          :
          :  max. iterations                   250          :
          :  Hamiltonian                  GFN2-xTB          :
          :  restarted?                       true          :
          :  GBSA solvation                   true          :
          :  PC potential                    false          :
          :  electronic temp.          300.0000000     K    :
          :  accuracy                    1.0000000          :
          :  -> integral cutoff          0.2500000E+02      :
          :  -> integral neglect         0.1000000E-07      :
          :  -> SCF convergence          0.1000000E-05 Eh   :
          :  -> wf. convergence          0.1000000E-03 e    :
          :  Broyden damping             0.4000000          :
          ...................................................

 iter      E             dE          RMSdq      gap      omega  full diag
   1   -182.1317159 -0.182132E+03  0.207E-05    0.77       0.0  T
   2   -182.1317159  0.588329E-10  0.273E-05    0.77     336.8  T
   3   -182.1317159 -0.592024E-10  0.150E-05    0.77     615.7  T

   *** convergence criteria satisfied after 3 iterations ***

         #    Occupation            Energy/Eh            Energy/eV
      -------------------------------------------------------------
         1        2.0000           -0.8731504             -23.7596
       ...           ...                  ...                  ...
       157        2.0000           -0.3608960              -9.8205
       158        2.0000           -0.3474614              -9.4549
       159        2.0000           -0.3306483              -8.9974
       160        2.0000           -0.3220409              -8.7632
       161        2.0000           -0.3131655              -8.5217
       162        2.0000           -0.3072475              -8.3606
       163        2.0000           -0.3053894              -8.3101 (HOMO)
       164        0.0000           -0.2770316              -7.5384 (LUMO)
       165                         -0.2516274              -6.8471
       166                         -0.2478765              -6.7451
       167                         -0.2457303              -6.6867
       168                         -0.2344154              -6.3788
       ...                                ...                  ...
       306                          3.4808237              94.7180
      -------------------------------------------------------------
                  HL-Gap            0.0283578 Eh            0.7717 eV
             Fermi-level           -0.2911476 Eh           -7.9225 eV

 SCC (total)                   0 d,  0 h,  0 min,  0.128 sec
 SCC setup                      ...        0 min,  0.003 sec (  2.338%)
 Dispersion                     ...        0 min,  0.003 sec (  2.694%)
 classical contributions        ...        0 min,  0.000 sec (  0.144%)
 integral evaluation            ...        0 min,  0.014 sec ( 11.164%)
 iterations                     ...        0 min,  0.050 sec ( 38.936%)
 molecular gradient             ...        0 min,  0.056 sec ( 43.890%)
 printout                       ...        0 min,  0.001 sec (  0.787%)

         :::::::::::::::::::::::::::::::::::::::::::::::::::::
         ::                     SUMMARY                     ::
         :::::::::::::::::::::::::::::::::::::::::::::::::::::
         :: total energy            -179.832743172623 Eh    ::
         :: total w/o Gsasa/hb      -179.790586818671 Eh    ::
         :: gradient norm              0.039293831437 Eh/a0 ::
         :: HOMO-LUMO gap              0.771655342784 eV    ::
         ::.................................................::
         :: SCC energy              -182.131715920755 Eh    ::
         :: -> isotropic ES            0.293560579324 Eh    ::
         :: -> anisotropic ES          0.009768102156 Eh    ::
         :: -> anisotropic XC          0.043312463927 Eh    ::
         :: -> dispersion             -0.176024639882 Eh    ::
         :: -> Gsolv                  -0.053147068742 Eh    ::
         ::    -> Gelec               -0.010990714790 Eh    ::
         ::    -> Gsasa               -0.045091316922 Eh    ::
         ::    -> Ghb                 -0.002389852475 Eh    ::
         ::    -> Gshift               0.005324815444 Eh    ::
         :: repulsion energy           2.287201662297 Eh    ::
         :: add. restraining           0.000000000000 Eh    ::
         :: total charge               0.000000000137 e     ::
         :::::::::::::::::::::::::::::::::::::::::::::::::::::

           -------------------------------------------------
          |                Property Printout                |
           -------------------------------------------------

    * Orbital Energies and Occupations

         #    Occupation            Energy/Eh            Energy/eV
      -------------------------------------------------------------
         1        2.0000           -0.8731504             -23.7596
       ...           ...                  ...                  ...
       151        2.0000           -0.3881176             -10.5612
       152        2.0000           -0.3854992             -10.4900
       153        2.0000           -0.3833900             -10.4326
       154        2.0000           -0.3828814             -10.4187
       155        2.0000           -0.3781562             -10.2902
       156        2.0000           -0.3703683             -10.0782
       157        2.0000           -0.3608960              -9.8205
       158        2.0000           -0.3474614              -9.4549
       159        2.0000           -0.3306483              -8.9974
       160        2.0000           -0.3220409              -8.7632
       161        2.0000           -0.3131655              -8.5217
       162        2.0000           -0.3072475              -8.3606
       163        2.0000           -0.3053894              -8.3101 (HOMO)
       164        0.0000           -0.2770316              -7.5384 (LUMO)
       165                         -0.2516274              -6.8471
       166                         -0.2478765              -6.7451
       167                         -0.2457303              -6.6867
       168                         -0.2344154              -6.3788
       169                         -0.2240048              -6.0955
       170                         -0.2062749              -5.6130
       171                         -0.2053272              -5.5872
       172                         -0.1915925              -5.2135
       173                         -0.1823584              -4.9622
       174                         -0.1550448              -4.2190
       ...                                ...                  ...
       306                          3.4808237              94.7180
      -------------------------------------------------------------
                  HL-Gap            0.0283578 Eh            0.7717 eV
             Fermi-level           -0.2911476 Eh           -7.9225 eV

     #   Z          covCN         q      C6AA      α(0)
     1   7 N        2.476    -0.127    23.819     7.248
     2   6 C        2.954     0.077    26.273     8.407
     3   6 C        2.919    -0.045    29.116     8.849
     4   6 C        2.923    -0.021    28.532     8.760
     5   6 C        2.916    -0.043    29.061     8.840
     6   6 C        2.894     0.041    27.072     8.531
     7   1 H        0.926     0.085     1.930     2.172
     8   1 H        0.926     0.055     2.258     2.350
     9   1 H        0.926     0.042     2.417     2.431
    10   6 C        2.953     0.076    26.310     8.413
    11   7 N        2.481    -0.137    24.038     7.281
    12   6 C        2.894     0.044    27.001     8.520
    13   6 C        2.916    -0.045    29.106     8.847
    14   6 C        2.923    -0.023    28.569     8.765
    15   6 C        2.919    -0.048    29.182     8.859
    16   1 H        0.926     0.044     2.392     2.418
    17   1 H        0.926     0.049     2.327     2.386
    18   1 H        0.926     0.080     1.981     2.201
    19  77 Ir       5.794    -0.143   386.620    36.361
    20   1 H        0.977     0.098     1.795     2.094
    21   5 B        2.617     0.393    16.211     6.814
    22   8 O        1.637    -0.416    21.165     6.210
    23   6 C        3.830     0.131    18.446     6.111
    24   6 C        3.755    -0.121    22.872     6.819
    25   1 H        0.925     0.050     2.316     2.380
    26   1 H        0.925     0.044     2.396     2.421
    27   1 H        0.925     0.051     2.310     2.377
    28   6 C        3.755    -0.107    22.603     6.779
    29   1 H        0.925     0.045     2.387     2.416
    30   1 H        0.925     0.040     2.448     2.447
    31   1 H        0.925     0.026     2.642     2.542
    32   6 C        3.830     0.130    18.455     6.112
    33   8 O        1.637    -0.398    20.817     6.159
    34   6 C        3.755    -0.119    22.839     6.814
    35   1 H        0.925     0.042     2.418     2.432
    36   1 H        0.925     0.047     2.354     2.399
    37   1 H        0.925     0.050     2.319     2.382
    38   6 C        3.755    -0.117    22.805     6.809
    39   1 H        0.925     0.044     2.397     2.421
    40   1 H        0.925     0.052     2.293     2.368
    41   1 H        0.925     0.043     2.405     2.425
    42   5 B        2.634     0.397    16.080     6.771
    43   8 O        1.637    -0.372    20.328     6.086
    44   6 C        3.847     0.127    18.490     6.116
    45   6 C        3.755    -0.130    23.057     6.847
    46   1 H        0.925     0.057     2.234     2.337
    47   1 H        0.925     0.057     2.233     2.337
    48   1 H        0.925     0.049     2.332     2.388
    49   6 C        3.755    -0.126    22.970     6.834
    50   1 H        0.925     0.046     2.370     2.407
    51   1 H        0.925     0.053     2.277     2.360
    52   1 H        0.925     0.053     2.285     2.364
    53   6 C        3.834     0.127    18.495     6.119
    54   8 O        1.638    -0.378    20.438     6.102
    55   6 C        3.755    -0.123    22.910     6.825
    56   1 H        0.925     0.055     2.263     2.353
    57   1 H        0.925     0.052     2.298     2.371
    58   1 H        0.925     0.046     2.376     2.411
    59   6 C        3.755    -0.125    22.951     6.831
    60   1 H        0.925     0.046     2.374     2.410
    61   1 H        0.925     0.050     2.322     2.383
    62   1 H        0.925     0.047     2.355     2.400
    63   5 B        2.618     0.391    16.233     6.818
    64   8 O        1.637    -0.383    20.535     6.117
    65   6 C        3.821     0.124    18.547     6.129
    66   6 C        3.755    -0.133    23.117     6.856
    67   1 H        0.925     0.049     2.337     2.391
    68   1 H        0.925     0.059     2.206     2.322
    69   1 H        0.925     0.054     2.265     2.353
    70   6 C        3.755    -0.129    23.025     6.842
    71   1 H        0.925     0.059     2.214     2.327
    72   1 H        0.925     0.050     2.326     2.385
    73   1 H        0.925     0.052     2.300     2.372
    74   6 C        3.834     0.127    18.503     6.120
    75   8 O        1.637    -0.371    20.307     6.083
    76   6 C        3.755    -0.128    23.008     6.839
    77   1 H        0.925     0.051     2.307     2.375
    78   1 H        0.925     0.056     2.243     2.342
    79   1 H        0.925     0.057     2.237     2.339
    80   6 C        3.755    -0.121    22.871     6.819
    81   1 H        0.925     0.038     2.477     2.461
    82   1 H        0.925     0.050     2.325     2.384
    83   1 H        0.925     0.053     2.283     2.363
    84   1 H        0.926     0.049     2.334     2.389
    85   1 H        0.926     0.048     2.349     2.397
    86   6 C        2.827    -0.050    29.235     8.860
    87   6 C        2.932    -0.032    28.804     8.802
    88   6 C        2.926     0.054    26.795     8.489
    89   6 C        2.913    -0.048    29.204     8.862
    90   1 H        0.926     0.023     2.693     2.566
    91   6 C        2.982    -0.012    28.317     8.729
    92   7 N        2.667    -0.074    22.676     7.072
    93   6 C        2.923    -0.048    29.198     8.861
    94   1 H        0.926     0.019     2.750     2.593
    95   6 C        2.909    -0.034    28.849     8.807
    96   5 B        2.677     0.216    18.271     7.185
    97   6 C        3.703    -0.091    22.399     6.767
    98   1 H        0.926     0.030     2.587     2.515
    99   6 C        2.822    -0.121    31.065     9.133
   100   1 H        0.925     0.029     2.599     2.521
   101   6 C        2.882    -0.049    29.216     8.861
   102   1 H        0.925     0.075     2.029     2.228
   103   1 H        0.925     0.087     1.912     2.162
   104   1 H        0.925     0.066     2.132     2.284
   105   1 H        0.925     0.022     2.703     2.571
   106   6 C        2.924    -0.034    28.854     8.809
   107   6 C        2.924    -0.035    28.874     8.812
   108   6 C        2.915    -0.033    28.818     8.803
   109   1 H        0.926     0.051     2.306     2.375
   110   6 C        2.918    -0.029    28.729     8.789
   111   1 H        0.926     0.082     1.957     2.187
   112   6 C        2.976    -0.039    28.962     8.828
   113   1 H        0.926     0.048     2.342     2.393
   114   1 H        0.926     0.044     2.396     2.420
   115   6 C        3.337     0.484    17.307     6.587
   116   9 F        0.790    -0.222    11.463     3.999
   117   9 F        0.791    -0.227    11.517     4.009
   118   9 F        0.790    -0.230    11.549     4.014

 Mol. C6AA /au·bohr⁶  :     155044.925397
 Mol. C8AA /au·bohr⁸  :    4087889.770824
 Mol. α(0) /au        :        612.135047


Wiberg/Mayer (AO) data.
largest (>0.10) Wiberg bond orders for each atom

 ---------------------------------------------------------------------------
     #   Z sym  total        # sym  WBO       # sym  WBO       # sym  WBO
 ---------------------------------------------------------------------------
     1   7 N    3.368 --     6 C    1.406     2 C    1.332    19 Ir   0.381
     2   6 C    3.980 --     3 C    1.355     1 N    1.332    10 C    1.079
     3   6 C    3.989 --     4 C    1.474     2 C    1.355     9 H    0.962
                             6 C    0.106
     4   6 C    3.986 --     3 C    1.474     5 C    1.399    84 H    0.969
     5   6 C    3.980 --     6 C    1.445     4 C    1.399     8 H    0.969
     6   6 C    3.971 --     5 C    1.445     1 N    1.406     7 H    0.946
                             3 C    0.106
     7   1 H    0.992 --     6 C    0.946
     8   1 H    0.996 --     5 C    0.969
     9   1 H    0.998 --     3 C    0.962
    10   6 C    3.980 --    15 C    1.356    11 N    1.325     2 C    1.079
    11   7 N    3.365 --    12 C    1.404    10 C    1.325    19 Ir   0.364
    12   6 C    3.971 --    13 C    1.445    11 N    1.404    18 H    0.944
                            15 C    0.106
    13   6 C    3.982 --    12 C    1.445    14 C    1.398    17 H    0.969
    14   6 C    3.986 --    15 C    1.473    13 C    1.398    85 H    0.969
    15   6 C    3.989 --    14 C    1.473    10 C    1.356    16 H    0.962
                            12 C    0.106
    16   1 H    0.998 --    15 C    0.962
    17   1 H    0.997 --    13 C    0.969
    18   1 H    0.993 --    12 C    0.944
    19  77 Ir   5.034 --    63 B    0.898    42 B    0.887    21 B    0.752
                            86 C    0.551    20 H    0.498     1 N    0.381
                            11 N    0.364
    20   1 H    0.988 --    19 Ir   0.498    86 C    0.381
    21   5 B    3.259 --    33 O    1.114    22 O    1.074    19 Ir   0.752
    22   8 O    2.179 --    21 B    1.074    23 C    0.948
    23   6 C    3.945 --    24 C    0.996    28 C    0.990    22 O    0.948
                            32 C    0.939
    24   6 C    3.994 --    23 C    0.996    26 H    0.984    27 H    0.983
                            25 H    0.982
    25   1 H    0.997 --    24 C    0.982
    26   1 H    0.997 --    24 C    0.984
    27   1 H    0.997 --    24 C    0.983
    28   6 C    3.997 --    23 C    0.990    29 H    0.984    30 H    0.984
                            31 H    0.983
    29   1 H    0.997 --    28 C    0.984
    30   1 H    0.998 --    28 C    0.984
    31   1 H    0.999 --    28 C    0.983
    32   6 C    3.943 --    38 C    0.995    34 C    0.991    33 O    0.945
                            23 C    0.939
    33   8 O    2.209 --    21 B    1.114    32 C    0.945
    34   6 C    3.995 --    32 C    0.991    36 H    0.984    35 H    0.982
                            37 H    0.982
    35   1 H    0.998 --    34 C    0.982
    36   1 H    0.997 --    34 C    0.984
    37   1 H    0.997 --    34 C    0.982
    38   6 C    3.995 --    32 C    0.995    41 H    0.984    39 H    0.983
                            40 H    0.982
    39   1 H    0.998 --    38 C    0.983
    40   1 H    0.997 --    38 C    0.982
    41   1 H    0.997 --    38 C    0.984
    42   5 B    3.337 --    43 O    1.122    54 O    1.109    19 Ir   0.887
    43   8 O    2.230 --    42 B    1.122    44 C    0.939
    44   6 C    3.939 --    45 C    0.997    49 C    0.990    53 C    0.939
                            43 O    0.939
    45   6 C    3.992 --    44 C    0.997    48 H    0.983    47 H    0.981
                            46 H    0.979
    46   1 H    0.997 --    45 C    0.979
    47   1 H    0.996 --    45 C    0.981
    48   1 H    0.996 --    45 C    0.983
    49   6 C    3.993 --    44 C    0.990    50 H    0.984    51 H    0.983
                            52 H    0.980
    50   1 H    0.997 --    49 C    0.984
    51   1 H    0.997 --    49 C    0.983
    52   1 H    0.997 --    49 C    0.980
    53   6 C    3.940 --    55 C    0.996    59 C    0.992    44 C    0.939
                            54 O    0.936
    54   8 O    2.236 --    42 B    1.109    53 C    0.936
    55   6 C    3.994 --    53 C    0.996    58 H    0.983    57 H    0.983
                            56 H    0.982
    56   1 H    0.997 --    55 C    0.982
    57   1 H    0.997 --    55 C    0.983
    58   1 H    0.997 --    55 C    0.983
    59   6 C    3.994 --    53 C    0.992    61 H    0.983    62 H    0.983
                            60 H    0.978
    60   1 H    0.998 --    59 C    0.978
    61   1 H    0.996 --    59 C    0.983
    62   1 H    0.997 --    59 C    0.983
    63   5 B    3.367 --    75 O    1.115    64 O    1.078    19 Ir   0.898
    64   8 O    2.222 --    63 B    1.078    65 C    0.941
    65   6 C    3.941 --    70 C    0.995    66 C    0.992    64 O    0.941
                            74 C    0.937
    66   6 C    3.993 --    65 C    0.992    69 H    0.983    68 H    0.982
                            67 H    0.981
    67   1 H    0.998 --    66 C    0.981
    68   1 H    0.996 --    66 C    0.982
    69   1 H    0.996 --    66 C    0.983
    70   6 C    3.993 --    65 C    0.995    72 H    0.983    73 H    0.982
                            71 H    0.982
    71   1 H    0.996 --    70 C    0.982
    72   1 H    0.996 --    70 C    0.983
    73   1 H    0.997 --    70 C    0.982
    74   6 C    3.937 --    76 C    0.996    80 C    0.989    75 O    0.942
                            65 C    0.937
    75   8 O    2.237 --    63 B    1.115    74 C    0.942
    76   6 C    3.991 --    74 C    0.996    77 H    0.983    78 H    0.982
                            79 H    0.980
    77   1 H    0.996 --    76 C    0.983
    78   1 H    0.997 --    76 C    0.982
    79   1 H    0.997 --    76 C    0.980
    80   6 C    3.994 --    74 C    0.989    81 H    0.983    83 H    0.983
                            82 H    0.982
    81   1 H    0.999 --    80 C    0.983
    82   1 H    0.997 --    80 C    0.982
    83   1 H    0.996 --    80 C    0.983
    84   1 H    0.997 --     4 C    0.969
    85   1 H    0.997 --    14 C    0.969
    86   6 C    3.949 --    87 C    1.449    88 C    1.267    19 Ir   0.551
                            20 H    0.381
    87   6 C    3.989 --    86 C    1.449    89 C    1.356    90 H    0.962
    88   6 C    3.971 --    91 C    1.268    86 C    1.267    92 N    1.182
    89   6 C    3.986 --    93 C    1.504    87 C    1.356    94 H    0.970
    90   1 H    0.999 --    87 C    0.962
    91   6 C    3.982 --    93 C    1.314    88 C    1.268    95 C    1.200
    92   7 N    3.603 --    96 B    1.232    88 C    1.182    97 C    1.005
    93   6 C    3.984 --    89 C    1.504    91 C    1.314    98 H    0.967
    94   1 H    0.999 --    89 C    0.970
    95   6 C    3.985 --    99 C    1.680    91 C    1.200   100 H    0.964
    96   5 B    3.531 --    92 N    1.232    99 C    1.126   101 C    0.967
    97   6 C    3.966 --    92 N    1.005   102 H    0.973   104 H    0.972
                           103 H    0.936
    98   1 H    0.997 --    93 C    0.967
    99   6 C    3.964 --    95 C    1.680    96 B    1.126   105 H    0.973
   100   1 H    0.997 --    95 C    0.964
   101   6 C    3.945 --   106 C    1.413   107 C    1.386    96 B    0.967
                           112 C    0.106
   102   1 H    0.994 --    97 C    0.973
   103   1 H    0.992 --    97 C    0.936
   104   1 H    0.995 --    97 C    0.972
   105   1 H    0.998 --    99 C    0.973
   106   6 C    3.986 --   108 C    1.444   101 C    1.413   109 H    0.969
                           110 C    0.103
   107   6 C    3.982 --   110 C    1.464   101 C    1.386   111 H    0.958
                           108 C    0.105
   108   6 C    3.988 --   106 C    1.444   112 C    1.409   113 H    0.968
                           107 C    0.105
   109   1 H    0.997 --   106 C    0.969
   110   6 C    3.989 --   107 C    1.464   112 C    1.389   114 H    0.967
                           106 C    0.103
   111   1 H    0.993 --   107 C    0.958
   112   6 C    3.950 --   108 C    1.409   110 C    1.389   115 C    0.953
                           101 C    0.106
   113   1 H    0.997 --   108 C    0.968
   114   1 H    0.998 --   110 C    0.967
   115   6 C    3.794 --   112 C    0.953   116 F    0.942   117 F    0.931
                           118 F    0.926
   116   9 F    1.061 --   115 C    0.942
   117   9 F    1.053 --   115 C    0.931
   118   9 F    1.050 --   115 C    0.926
 ---------------------------------------------------------------------------

Topologies differ in total number of bonds
Writing topology from bond orders to xtbtopo.mol

molecular dipole:
                 x           y           z       tot (Debye)
 q only:       -2.722      -0.447      -1.305
   full:       -4.133      -0.227      -1.861      11.536
molecular quadrupole (traceless):
                xx          xy          yy          xz          yz          zz
 q only:      -64.505      -1.423      40.808     -27.985       6.799      23.697
  q+dip:      -52.642       1.864      31.144     -29.734      12.084      21.498
   full:      -58.513       1.820      36.904     -30.914       7.702      21.609


           -------------------------------------------------
          | TOTAL ENERGY             -179.832743172623 Eh   |
          | GRADIENT NORM               0.039293831437 Eh/α |
          | HOMO-LUMO GAP               0.771655342784 eV   |
           -------------------------------------------------

------------------------------------------------------------------------
 * finished run on 2022/01/14 at 15:19:50.538     
------------------------------------------------------------------------
 total:
 * wall-time:     0 d,  0 h,  0 min,  0.165 sec
 *  cpu-time:     0 d,  0 h,  0 min,  0.966 sec
 * ratio c/w:     5.847 speedup
 SCF:
 * wall-time:     0 d,  0 h,  0 min,  0.130 sec
 *  cpu-time:     0 d,  0 h,  0 min,  0.771 sec
 * ratio c/w:     5.936 speedup

