13
 energy: -24.464187634599 gnorm: 0.043101064146 xtb: 6.4.1 (1a32961)
C        -0.72977000000000    1.17436000000000   -0.00200000000000
C         0.66601000000000    1.25258000000000   -0.02262000000000
C         1.43508000000000    0.08292000000000   -0.04093000000000
C         2.86559000000000    0.16268000000000   -0.11040000000000
N         4.02111000000000    0.22719000000000   -0.18164000000000
C         0.80087000000000   -1.16525000000000   -0.01602000000000
C        -0.59527000000000   -1.24239000000000    0.00018000000000
C        -1.35419000000000   -0.07258000000000   -0.00153000000000
Cl       -3.07107000000000   -0.16795000000000   -0.01887000000000
H        -1.32206000000000    2.08626000000000    0.00371000000000
H         1.14591000000000    2.23006000000000   -0.03431000000000
H         1.38639000000000   -2.08316000000000   -0.02032000000000
H        -1.08256000000000   -2.21451000000000    0.00479000000000
13
 energy: -24.465791371912 gnorm: 0.015592428463 xtb: 6.4.1 (1a32961)
C        -0.71832079224584    1.17226446864172   -0.00851822066951
C         0.66370829426819    1.25032296521405   -0.03099519400201
C         1.42713392732492    0.08224993544398   -0.04734735046133
C         2.84322070880422    0.16097423999686   -0.10277993621556
N         3.98439596061434    0.22624905599382   -0.16271174289935
C         0.79805262880711   -1.16335208593984   -0.02576126727531
C        -0.58416673430204   -1.23914082843656   -0.00513430201308
C        -1.33723827957206   -0.07163690236804   -0.00408410540446
Cl       -3.05858676358772   -0.16699232548197    0.00129171671993
H        -1.31005404499706    2.07572512623763    0.00320279332642
H         1.14557111940975    2.21820106682712   -0.03773698104955
H         1.38402677533547   -2.07178965310716   -0.02692336760685
H        -1.07170279985929   -2.20286506302161    0.00753795755066
13
 energy: -24.465920329018 gnorm: 0.003702502889 xtb: 6.4.1 (1a32961)
C        -0.71610249849672    1.17268616386061   -0.01184311129601
C         0.66239104044923    1.25066043627064   -0.03643444544989
C         1.42478900330376    0.08216329831096   -0.05151059472352
C         2.83628964099777    0.16113710914166   -0.09611075315752
N         3.98092505224759    0.22552183141076   -0.14657846191870
C         0.79680242551362   -1.16368801723485   -0.03170936652677
C        -0.58183321628015   -1.23938995501985   -0.00786698877377
C        -1.33219997944291   -0.07139615231104   -0.00227076802174
Cl       -3.05725358737254   -0.16686215521425    0.01929805972165
H        -1.31013402899413    2.07206375737401   -0.00024200121403
H         1.14825446890153    2.21391313168823   -0.04475965093965
H         1.38606889599776   -2.06723554449502   -0.03602738663601
H        -1.07195721682481   -2.19936390378185    0.00609546893598
13
 energy: -24.465944804913 gnorm: 0.001854786874 xtb: 6.4.1 (1a32961)
C        -0.71598255192818    1.17359122321954   -0.01364132666693
C         0.66240112502846    1.25132080716721   -0.03965254122277
C         1.42490328173323    0.08181929712763   -0.05314941654982
C         2.83510089802533    0.16040056486214   -0.09187160974727
N         3.98013931903010    0.22737113524723   -0.13611616607532
C         0.79660059465631   -1.16480133141189   -0.03519332471023
C        -0.58190376600981   -1.24041055401691   -0.00929610876087
C        -1.33058085389950   -0.07126786022544   -0.00015005455820
Cl       -3.05831296418115   -0.16661913868631    0.03091672161593
H        -1.31241834636680    2.07117062473252   -0.00298768377607
H         1.15192230450407    2.21250513437095   -0.05047615890894
H         1.38896139535036   -2.06612793161396   -0.04276832476813
H        -1.07479043594241   -2.19874197077271    0.00442599412863
13
 energy: -24.465948211804 gnorm: 0.001330935406 xtb: 6.4.1 (1a32961)
C        -0.71683488814791    1.17454995179407   -0.01470413006005
C         0.66190260831698    1.25252255766354   -0.04251896880276
C         1.42497670006067    0.08252876742224   -0.05520715502670
C         2.83519879600847    0.16316540150964   -0.08893569113695
N         3.98074117396891    0.22263421908892   -0.12618970090366
C         0.79695492896432   -1.16511044448098   -0.03828936737580
C        -0.58199174868397   -1.24133747356439   -0.01023991187788
C        -1.32937131050643   -0.07133479827397    0.00194724589340
Cl       -3.05960970893347   -0.16715930080097    0.04058369692040
H        -1.31583112898809    2.07081520907188   -0.00493778978072
H         1.15446112765091    2.21260800878866   -0.05574445653368
H         1.39258211639515   -2.06482361183236   -0.04868423221873
H        -1.07713866610551   -2.19884848638626    0.00296046090315
13
 energy: -24.465948757983 gnorm: 0.000990364400 xtb: 6.4.1 (1a32961)
C        -0.71628600250662    1.17445369582821   -0.01470890217251
C         0.66263271458379    1.25155044435927   -0.04304775894728
C         1.42487359843209    0.08107704909597   -0.05574455070232
C         2.83577705830538    0.15879635078880   -0.08933317406048
N         3.98052491898831    0.23139818634293   -0.12475557896747
C         0.79628964534576   -1.16601034035672   -0.03856047613105
C        -0.58271143179107   -1.24147242235382   -0.01022382431169
C        -1.32930165142032   -0.07108917608137    0.00205761751113
Cl       -3.05970309678599   -0.16619209151711    0.04099921478750
H        -1.31475028653006    2.07118405713443   -0.00452594699310
H         1.15550282166136    2.21164834963537   -0.05642007222340
H         1.39135909356607   -2.06621415731374   -0.04890498044658
H        -1.07816738184871   -2.19891994556222    0.00320843265727
13
 energy: -24.465951660605 gnorm: 0.000429071245 xtb: 6.4.1 (1a32961)
C        -0.71640668670849    1.17413519741572   -0.01419433593908
C         0.66228214129350    1.25170233652628   -0.04198998297472
C         1.42466757449768    0.08184576295158   -0.05508701044101
C         2.83552673036887    0.16093553931861   -0.09089064907587
N         3.98058406258193    0.22677661793574   -0.12792755740771
C         0.79663765896219   -1.16513813591881   -0.03752672549598
C        -0.58218549992917   -1.24096768332005   -0.00985537340794
C        -1.32964420696593   -0.07122701299600    0.00133343954321
Cl       -3.05914770385764   -0.16672740601108    0.03723070924691
H        -1.31405426003325    2.07121249922569   -0.00350265152886
H         1.15347408996879    2.21243975570863   -0.05457377947968
H         1.39062055355685   -2.06584330153454   -0.04684777348634
H        -1.07631445373532   -2.19893416930177    0.00387169044706
13
 energy: -24.465952056076 gnorm: 0.000289454427 xtb: 6.4.1 (1a32961)
C        -0.71647244415690    1.17426451593832   -0.01433463079659
C         0.66227182692931    1.25184843968645   -0.04257079416030
C         1.42470940490370    0.08188004723158   -0.05571291217931
C         2.83544681500840    0.16113748594694   -0.09065525430323
N         3.98068133851202    0.22653164527409   -0.12573980162928
C         0.79667893258467   -1.16525124933805   -0.03815040343150
C        -0.58221241248681   -1.24111298299014   -0.00994593696948
C        -1.32949199277149   -0.07122857156721    0.00174094590078
Cl       -3.05940316105786   -0.16675274032223    0.03898383108893
H        -1.31442973185002    2.07114068369251   -0.00383880952879
H         1.15387149739362    2.21238812591728   -0.05549276749225
H         1.39104800011120   -2.06571795392222   -0.04794245236476
H        -1.07665807311984   -2.19891744554730    0.00369898586578
