13
 energy: -24.465952056229 gnorm: 0.000289856224 xtb: 6.4.1 (1a32961)
C        -0.71647244415690    1.17426451593832   -0.01433463079659
C         0.66227182692931    1.25184843968645   -0.04257079416030
C         1.42470940490370    0.08188004723158   -0.05571291217931
C         2.83544681500840    0.16113748594694   -0.09065525430323
N         3.98068133851202    0.22653164527409   -0.12573980162928
C         0.79667893258467   -1.16525124933805   -0.03815040343150
C        -0.58221241248681   -1.24111298299014   -0.00994593696948
C        -1.32949199277149   -0.07122857156721    0.00174094590078
Cl       -3.05940316105786   -0.16675274032223    0.03898383108893
H        -1.31442973185002    2.07114068369251   -0.00383880952879
H         1.15387149739362    2.21238812591728   -0.05549276749225
H         1.39104800011120   -2.06571795392222   -0.04794245236476
H        -1.07665807311984   -2.19891744554730    0.00369898586578
