15
 energy: -23.431392772330 gnorm: 0.000235499870 xtb: 6.4.1 (1a32961)
C        -1.56034981748085   -1.32471098665168   -0.00515741289499
C        -2.57985854574376   -0.39852303885894   -0.00411247233566
C        -2.30539388474877    0.96959636764716   -0.00063452628273
C        -1.00443683521032    1.43040986467232    0.00185248514225
C         0.02247984367694    0.49835406122804    0.00066339307377
S         1.73615926840760    0.82319326331672    0.00309263283945
C         2.07818658663012   -0.87810203682877   -0.00037768002824
C         0.97277373431508   -1.65000344656592   -0.00364736477994
C        -0.23449429710352   -0.88620407582044   -0.00281109993975
H        -1.77170796646045   -2.38368554250468   -0.00836645291872
H        -3.60732394444206   -0.73075474268777   -0.00625737571156
H        -3.12091878750895    1.67689376467763    0.00028750028960
H        -0.78484643768398    2.48686785985788    0.00486116977358
H         3.10511954770404   -1.18834285899543    0.00016217107610
H         0.99173153564888   -2.72521845248611   -0.00642496730315
