15
 energy: -23.427942565186 gnorm: 0.059004977375 xtb: 6.4.1 (1a32961)
C        -1.57399000000000   -1.32020000000000   -0.00598000000000
C        -2.61171000000000   -0.38342000000000   -0.00575000000000
C        -2.32879000000000    0.97542000000000   -0.00003000000000
C        -1.00637000000000    1.42568000000000    0.00355000000000
C         0.03628000000000    0.47832000000000    0.00092000000000
S         1.73055000000000    0.79642000000000    0.00041000000000
C         2.11818000000000   -0.86396000000000   -0.00226000000000
C         0.99356000000000   -1.65523000000000   -0.00062000000000
C        -0.22396000000000   -0.89502000000000   -0.00211000000000
H        -1.80776000000000   -2.38197000000000   -0.00964000000000
H        -3.64437000000000   -0.72358000000000   -0.01010000000000
H        -3.14161000000000    1.69787000000000    0.00123000000000
H        -0.78720000000000    2.48945000000000    0.00756000000000
H         3.15146000000000   -1.18257000000000   -0.00435000000000
H         1.03285000000000   -2.73744000000000    0.00030000000000
15
 energy: -23.431034097163 gnorm: 0.020698600682 xtb: 6.4.1 (1a32961)
C        -1.56444320104041   -1.32453511385174   -0.00515211821224
C        -2.58514338551322   -0.39414877033003   -0.00491333672751
C        -2.30729104488952    0.97067588822927   -0.00041785355733
C        -1.00278168759520    1.42724715462603    0.00251046736638
C         0.02685324006136    0.49023823588891    0.00080339400568
S         1.72708745577256    0.81591153251108    0.00133278876826
C         2.08211757347199   -0.86524363276616   -0.00112954454790
C         0.97576538750671   -1.65089055800202   -0.00271981777378
C        -0.23243739399728   -0.89180460675906   -0.00179680855808
H        -1.78943423301613   -2.38230339619875   -0.00884895958579
H        -3.61170908455127   -0.73366589136290   -0.00864900067071
H        -3.11769712484871    1.68685894114223    0.00097370930737
H        -0.78356084124161    2.48477467467776    0.00630606078714
H         3.10713645122706   -1.18614446522208   -0.00178736744161
H         1.01265788865369   -2.72719999258253   -0.00338161315988
15
 energy: -23.431329759503 gnorm: 0.006437477895 xtb: 6.4.1 (1a32961)
C        -1.56111732176570   -1.32502398653495   -0.00556946598025
C        -2.57865707542956   -0.39801208776196   -0.00463243052092
C        -2.30353946278603    0.96979000371889   -0.00050060906066
C        -1.00331056005036    1.42900663370493    0.00231266383761
C         0.02340552008316    0.49652968718218    0.00090686423477
S         1.73084541101912    0.82204267279454    0.00274202967031
C         2.07420256567694   -0.87095658294992   -0.00091113179550
C         0.97179124749479   -1.64930295210219   -0.00287824338270
C        -0.23492893521870   -0.88887495455114   -0.00250354631741
H        -1.77794274674518   -2.38264483534764   -0.00833964109579
H        -3.60458390443685   -0.73412166479350   -0.00729055081681
H        -3.11609230984255    1.68042193461110    0.00047887743324
H        -0.78313898120086    2.48480724871251    0.00540700079707
H         3.09827998966875   -1.19018098017503   -0.00123808374313
H         1.00190656353304   -2.72371013650781   -0.00485373325983
15
 energy: -23.431377856166 gnorm: 0.003059115647 xtb: 6.4.1 (1a32961)
C        -1.56054605299628   -1.32488478714820   -0.00521244448229
C        -2.57893798874003   -0.39863434655139   -0.00420905395420
C        -2.30446562683774    0.96977790202177   -0.00064299517712
C        -1.00408443890585    1.42989355726559    0.00191243468497
C         0.02278598846421    0.49830359278497    0.00075515582314
S         1.73415044356065    0.82324821631127    0.00314424159751
C         2.07556889380805   -0.87470844004938   -0.00045164656161
C         0.97202139583150   -1.64941962045951   -0.00359113856941
C        -0.23502352249497   -0.88741602411899   -0.00269058248568
H        -1.77348977751420   -2.38325293806543   -0.00823983918055
H        -3.60566344550109   -0.73222810782053   -0.00645681678083
H        -3.11886259599762    1.67793009529322    0.00028515864475
H        -0.78371427386800    2.48582373460024    0.00491069543851
H         3.10073533103830   -1.19064821564439   -0.00010639422909
H         0.99664567015306   -2.72401461841924   -0.00627677476811
15
 energy: -23.431391881602 gnorm: 0.000921388194 xtb: 6.4.1 (1a32961)
C        -1.56036418494568   -1.32470142797679   -0.00552098981277
C        -2.57976770331245   -0.39864431113226   -0.00423237623437
C        -2.30542130381564    0.96969546929644   -0.00061401054269
C        -1.00453969811955    1.43038006769604    0.00188535808898
C         0.02253256027745    0.49873488927021    0.00073752314918
S         1.73625252235557    0.82342893143792    0.00352019522432
C         2.07773580229754   -0.87753086889265   -0.00043567707283
C         0.97263414792834   -1.64979084244966   -0.00340237942640
C        -0.23469251092642   -0.88636677686682   -0.00305366102335
H        -1.77134539447039   -2.38368533986463   -0.00822640458395
H        -3.60721750230081   -0.73068951975631   -0.00602667571244
H        -3.12101997743596    1.67668548808345    0.00023817927261
H        -0.78452073879391    2.48671579250781    0.00473166372183
H         3.10418771660544   -1.18958731682461   -0.00015281193260
H         0.99266626465645   -2.72487423452816   -0.00631793311552
15
 energy: -23.431392772103 gnorm: 0.000235406019 xtb: 6.4.1 (1a32961)
C        -1.56034981748085   -1.32471098665168   -0.00515741289499
C        -2.57985854574376   -0.39852303885894   -0.00411247233566
C        -2.30539388474877    0.96959636764716   -0.00063452628273
C        -1.00443683521032    1.43040986467232    0.00185248514225
C         0.02247984367694    0.49835406122804    0.00066339307377
S         1.73615926840760    0.82319326331672    0.00309263283945
C         2.07818658663012   -0.87810203682877   -0.00037768002824
C         0.97277373431508   -1.65000344656592   -0.00364736477994
C        -0.23449429710352   -0.88620407582044   -0.00281109993975
H        -1.77170796646045   -2.38368554250468   -0.00836645291872
H        -3.60732394444206   -0.73075474268777   -0.00625737571156
H        -3.12091878750895    1.67689376467763    0.00028750028960
H        -0.78484643768398    2.48686785985788    0.00486116977358
H         3.10511954770404   -1.18834285899543    0.00016217107610
H         0.99173153564888   -2.72521845248611   -0.00642496730315
