      -----------------------------------------------------------      
     |                   =====================                   |     
     |                           x T B                           |     
     |                   =====================                   |     
     |                         S. Grimme                         |     
     |          Mulliken Center for Theoretical Chemistry        |     
     |                    University of Bonn                     |     
      -----------------------------------------------------------      

   * xtb version 6.4.0 (f63f532) compiled by 'knkr256@seskscpg008.prim.scp' on 2021-04-09

   xtb is free software: you can redistribute it and/or modify it under
   the terms of the GNU Lesser General Public License as published by
   the Free Software Foundation, either version 3 of the License, or
   (at your option) any later version.
   
   xtb is distributed in the hope that it will be useful,
   but WITHOUT ANY WARRANTY; without even the implied warranty of
   MERCHANTABILITY or FITNESS FOR A PARTICULAR PURPOSE.  See the
   GNU Lesser General Public License for more details.
   
   Cite this work as:
   * C. Bannwarth, E. Caldeweyher, S. Ehlert, A. Hansen, P. Pracht,
     J. Seibert, S. Spicher, S. Grimme, WIREs Comput. Mol. Sci., 2020, 11,
     e01493. DOI: 10.1002/wcms.1493
   
   for GFN2-xTB:
   * C. Bannwarth, S. Ehlert and S. Grimme., J. Chem. Theory Comput., 2019,
     15, 1652-1671. DOI: 10.1021/acs.jctc.8b01176
   for GFN1-xTB:
   * S. Grimme, C. Bannwarth, P. Shushkov, J. Chem. Theory Comput., 2017,
     13, 1989-2009. DOI: 10.1021/acs.jctc.7b00118
   for GFN0-xTB:
   * P. Pracht, E. Caldeweyher, S. Ehlert, S. Grimme, ChemRxiv, 2019, preprint.
     DOI: 10.26434/chemrxiv.8326202.v1
   for GFN-FF:
   * S. Spicher and S. Grimme, Angew. Chem. Int. Ed., 2020, 59, 15665-15673.
     DOI: 10.1002/anie.202004239
   
   for DFT-D4:
   * E. Caldeweyher, C. Bannwarth and S. Grimme, J. Chem. Phys., 2017,
     147, 034112. DOI: 10.1063/1.4993215
   * E. Caldeweyher, S. Ehlert, A. Hansen, H. Neugebauer, S. Spicher,
     C. Bannwarth and S. Grimme, J. Chem. Phys., 2019, 150, 154122.
     DOI: 10.1063/1.5090222
   * E. Caldeweyher, J.-M. Mewes, S. Ehlert and S. Grimme, Phys. Chem. Chem. Phys.
     2020, 22, 8499-8512. DOI: 10.1039/D0CP00502A
   
   for sTDA-xTB:
   * S. Grimme and C. Bannwarth, J. Chem. Phys., 2016, 145, 054103.
     DOI: 10.1063/1.4959605
   
   in the mass-spec context:
   * V. Asgeirsson, C. Bauer and S. Grimme, Chem. Sci., 2017, 8, 4879.
     DOI: 10.1039/c7sc00601b
   * J. Koopman and S. Grimme, ACS Omega 2019, 4, 12, 15120-15133.
     DOI: 10.1021/acsomega.9b02011
   
   for metadynamics refer to:
   * S. Grimme, J. Chem. Theory Comput., 2019, 155, 2847-2862
     DOI: 10.1021/acs.jctc.9b00143
   
   for SPH calculations refer to:
   * S. Spicher and S. Grimme, J. Chem. Theory Comput., 2021, 17, 1701-1714
     DOI: 10.1021/acs.jctc.0c01306
   
   with help from (in alphabetical order)
   P. Atkinson, C. Bannwarth, F. Bohle, G. Brandenburg, E. Caldeweyher
   M. Checinski, S. Dohm, S. Ehlert, S. Ehrlich, I. Gerasimov, J. Koopman
   C. Lavinge, S. Lehtola, F. März, M. Müller, F. Musil, H. Neugebauer
   J. Pisarek, P. Pracht, J. Seibert, P. Shushkov, S. Spicher, M. Stahn
   T. Strunk, J. Stückrath, T. Rose, and J. Unsleber
   
 * started run on 2021/10/08 at 07:28:45.271     

           -------------------------------------------------
          |                Calculation Setup                |
           -------------------------------------------------

          program call               : xtb xtbopt.xyz --sp --alpb thf -P 6
          hostname                   : seskscpg010.prim.scp
          coordinate file            : xtbopt.xyz
          omp threads                :                     6
          number of atoms            :                    96
          number of electrons        :                   256
          charge                     :                     0
          spin                       :                   0.0
          first test random number   :      0.48702794145670

   ID    Z sym.   atoms
    1    7 N      1, 11
    2    6 C      2-6, 10, 12-15, 23, 24, 28, 32, 34, 38, 44, 45, 49, 53, 55,
                  59, 65, 66, 70, 74, 76, 80, 86-89, 91, 93
    3    1 H      7-9, 16-18, 20, 25-27, 29-31, 35-37, 39-41, 46-48, 50-52,
                  56-58, 60-62, 67-69, 71-73, 77-79, 81-85, 90, 92, 94, 95
    4   77 Ir     19
    5    5 B      21, 42, 63
    6    8 O      22, 33, 43, 54, 64, 75
    7   53 I      96

molecular fragmentation (1/2 indicates fragments):
111111111111111111111111111111111111111111111111111111111111111111111111
111111111111122222222222
# atoms in fragment 1/2:    85    11
 fragment masses (1/2) :      730.32      203.00
CMA distance (Bohr)    :  12.582
constraining FC (au)   :  0.0500

           -------------------------------------------------
          |                 G F N 2 - x T B                 |
           -------------------------------------------------

        Reference                      10.1021/acs.jctc.8b01176
      * Hamiltonian:
        H0-scaling (s, p, d)           1.850000    2.230000    2.230000
        zeta-weighting                 0.500000
      * Dispersion:
        s8                             2.700000
        a1                             0.520000
        a2                             5.000000
        s9                             5.000000
      * Repulsion:
        kExp                           1.500000    1.000000
        rExp                           1.000000
      * Coulomb:
        alpha                          2.000000
        third order                    shell-resolved
        anisotropic                    true
        a3                             3.000000
        a5                             4.000000
        cn-shift                       1.200000
        cn-exp                         4.000000
        max-rad                        5.000000

      * Solvation model:               ALPB
        Solvent                        thf
        Parameter file                 internal GFN2-xTB/ALPB
        Dielectric constant                7.6000E+00
        Reference state                gsolv [1 M gas/solution]
        Free energy shift                  5.3248E-03 Eh       3.3414E+00 kcal/mol
        Temperature                        2.9815E+02 K
        Density                            8.8300E-01 kg/L
        Solvent mass                       7.2106E+01 g/mol
        Interaction kernel             P16
        Born radius scaling (c1)           1.7311E+00
        Born radii integrator          GBOBC
        Born offset                        0.0000E+00 a0       0.0000E+00 AA
        H-bond correction              true
        Ion screening                  false
        Surface tension                    1.0000E-05 Eh       1.5569E+01 dyn/cm
        Grid points                               230 per atom
q/qsh data taken from xtbrestart
CAMM data taken from xtbrestart

          ...................................................
          :                      SETUP                      :
          :.................................................:
          :  # basis functions                 249          :
          :  # atomic orbitals                 247          :
          :  # shells                          145          :
          :  # electrons                       256          :
          :  max. iterations                   250          :
          :  Hamiltonian                  GFN2-xTB          :
          :  restarted?                       true          :
          :  GBSA solvation                   true          :
          :  PC potential                    false          :
          :  electronic temp.          300.0000000     K    :
          :  accuracy                    1.0000000          :
          :  -> integral cutoff          0.2500000E+02      :
          :  -> integral neglect         0.1000000E-07      :
          :  -> SCF convergence          0.1000000E-05 Eh   :
          :  -> wf. convergence          0.1000000E-03 e    :
          :  Broyden damping             0.4000000          :
          ...................................................

 iter      E             dE          RMSdq      gap      omega  full diag
   1   -141.5219219 -0.141522E+03  0.465E-05    0.90       0.0  T
   2   -141.5219219  0.294449E-10  0.413E-05    0.90     247.1  T
   3   -141.5219219  0.551381E-11  0.373E-05    0.90     273.5  T

   *** convergence criteria satisfied after 3 iterations ***

         #    Occupation            Energy/Eh            Energy/eV
      -------------------------------------------------------------
         1        2.0000           -0.7249181             -19.7260
       ...           ...                  ...                  ...
       122        2.0000           -0.3846606             -10.4671
       123        2.0000           -0.3519488              -9.5770
       124        2.0000           -0.3355665              -9.1312
       125        2.0000           -0.3267105              -8.8902
       126        2.0000           -0.3232300              -8.7955
       127        2.0000           -0.3152797              -8.5792
       128        2.0000           -0.3129240              -8.5151 (HOMO)
       129                         -0.2796985              -7.6110 (LUMO)
       130                         -0.2515531              -6.8451
       131                         -0.2491135              -6.7787
       132                         -0.2267622              -6.1705
       133                         -0.2237264              -6.0879
       ...                                ...                  ...
       247                          3.7691152             102.5628
      -------------------------------------------------------------
                  HL-Gap            0.0332255 Eh            0.9041 eV
             Fermi-level           -0.2962731 Eh           -8.0620 eV

 SCC (total)                   0 d,  0 h,  0 min,  0.103 sec
 SCC setup                      ...        0 min,  0.003 sec (  2.935%)
 Dispersion                     ...        0 min,  0.001 sec (  1.412%)
 classical contributions        ...        0 min,  0.000 sec (  0.141%)
 integral evaluation            ...        0 min,  0.027 sec ( 26.466%)
 iterations                     ...        0 min,  0.032 sec ( 30.612%)
 molecular gradient             ...        0 min,  0.039 sec ( 37.777%)
 printout                       ...        0 min,  0.001 sec (  0.601%)

         :::::::::::::::::::::::::::::::::::::::::::::::::::::
         ::                     SUMMARY                     ::
         :::::::::::::::::::::::::::::::::::::::::::::::::::::
         :: total energy            -139.742318162472 Eh    ::
         :: total w/o Gsasa/hb      -139.700021858860 Eh    ::
         :: gradient norm              0.034072354666 Eh/a0 ::
         :: HOMO-LUMO gap              0.904111983632 eV    ::
         ::.................................................::
         :: SCC energy              -141.521921910479 Eh    ::
         :: -> isotropic ES            0.234841212310 Eh    ::
         :: -> anisotropic ES          0.010722422367 Eh    ::
         :: -> anisotropic XC          0.044854599589 Eh    ::
         :: -> dispersion             -0.135369325337 Eh    ::
         :: -> Gsolv                  -0.051095473297 Eh    ::
         ::    -> Gelec               -0.008799169684 Eh    ::
         ::    -> Gsasa               -0.045187558476 Eh    ::
         ::    -> Ghb                 -0.002433560581 Eh    ::
         ::    -> Gshift               0.005324815444 Eh    ::
         :: repulsion energy           1.771796615080 Eh    ::
         :: add. restraining           0.000000000000 Eh    ::
         :: total charge               0.000000000002 e     ::
         :::::::::::::::::::::::::::::::::::::::::::::::::::::

           -------------------------------------------------
          |                Property Printout                |
           -------------------------------------------------

    * Orbital Energies and Occupations

         #    Occupation            Energy/Eh            Energy/eV
      -------------------------------------------------------------
         1        2.0000           -0.7249181             -19.7260
       ...           ...                  ...                  ...
       116        2.0000           -0.3988570             -10.8535
       117        2.0000           -0.3980582             -10.8317
       118        2.0000           -0.3919590             -10.6657
       119        2.0000           -0.3886528             -10.5758
       120        2.0000           -0.3865053             -10.5173
       121        2.0000           -0.3854156             -10.4877
       122        2.0000           -0.3846606             -10.4671
       123        2.0000           -0.3519488              -9.5770
       124        2.0000           -0.3355665              -9.1312
       125        2.0000           -0.3267105              -8.8902
       126        2.0000           -0.3232300              -8.7955
       127        2.0000           -0.3152797              -8.5792
       128        2.0000           -0.3129240              -8.5151 (HOMO)
       129                         -0.2796985              -7.6110 (LUMO)
       130                         -0.2515531              -6.8451
       131                         -0.2491135              -6.7787
       132                         -0.2267622              -6.1705
       133                         -0.2237264              -6.0879
       134                         -0.2135255              -5.8103
       135                         -0.2079553              -5.6588
       136                         -0.1913865              -5.2079
       137                         -0.1543694              -4.2006
       138                         -0.1297068              -3.5295
       139                         -0.1265437              -3.4434
       ...                                ...                  ...
       247                          3.7691152             102.5628
      -------------------------------------------------------------
                  HL-Gap            0.0332255 Eh            0.9041 eV
             Fermi-level           -0.2962731 Eh           -8.0620 eV

     #   Z          covCN         q      C6AA      α(0)
     1   7 N        2.549    -0.121    23.669     7.225
     2   6 C        2.954     0.077    26.279     8.408
     3   6 C        2.918    -0.043    29.064     8.841
     4   6 C        2.924    -0.022    28.544     8.761
     5   6 C        2.915    -0.043    29.071     8.841
     6   6 C        2.892     0.048    26.918     8.506
     7   1 H        0.926     0.054     2.275     2.359
     8   1 H        0.926     0.057     2.231     2.336
     9   1 H        0.926     0.048     2.340     2.392
    10   6 C        2.953     0.073    26.363     8.421
    11   7 N        2.553    -0.128    23.815     7.248
    12   6 C        2.890     0.042    27.061     8.529
    13   6 C        2.915    -0.044    29.097     8.845
    14   6 C        2.922    -0.024    28.601     8.770
    15   6 C        2.918    -0.045    29.113     8.848
    16   1 H        0.926     0.047     2.352     2.398
    17   1 H        0.926     0.052     2.289     2.366
    18   1 H        0.926     0.076     2.024     2.225
    19  77 Ir       5.939    -0.153   387.812    36.417
    20   1 H        0.977     0.090     1.871     2.137
    21   5 B        2.632     0.403    16.017     6.759
    22   8 O        1.638    -0.407    21.001     6.186
    23   6 C        3.836     0.130    18.450     6.111
    24   6 C        3.755    -0.122    22.890     6.822
    25   1 H        0.925     0.054     2.273     2.357
    26   1 H        0.925     0.045     2.380     2.413
    27   1 H        0.925     0.051     2.302     2.373
    28   6 C        3.754    -0.110    22.651     6.786
    29   1 H        0.925     0.048     2.345     2.395
    30   1 H        0.925     0.042     2.422     2.434
    31   1 H        0.925     0.028     2.618     2.530
    32   6 C        3.842     0.131    18.436     6.108
    33   8 O        1.637    -0.403    20.921     6.174
    34   6 C        3.755    -0.121    22.879     6.820
    35   1 H        0.925     0.051     2.304     2.373
    36   1 H        0.925     0.046     2.366     2.406
    37   1 H        0.925     0.050     2.323     2.383
    38   6 C        3.754    -0.120    22.861     6.818
    39   1 H        0.925     0.047     2.357     2.401
    40   1 H        0.925     0.053     2.278     2.360
    41   1 H        0.925     0.046     2.375     2.410
    42   5 B        2.625     0.402    16.062     6.776
    43   8 O        1.637    -0.384    20.553     6.120
    44   6 C        3.837     0.129    18.469     6.114
    45   6 C        3.755    -0.126    22.967     6.833
    46   1 H        0.925     0.054     2.266     2.354
    47   1 H        0.925     0.056     2.244     2.343
    48   1 H        0.925     0.050     2.321     2.383
    49   6 C        3.755    -0.122    22.893     6.822
    50   1 H        0.925     0.049     2.334     2.389
    51   1 H        0.925     0.046     2.370     2.407
    52   1 H        0.925     0.053     2.282     2.362
    53   6 C        3.832     0.128    18.486     6.117
    54   8 O        1.637    -0.384    20.542     6.118
    55   6 C        3.755    -0.124    22.943     6.830
    56   1 H        0.925     0.054     2.266     2.354
    57   1 H        0.925     0.054     2.265     2.353
    58   1 H        0.925     0.049     2.337     2.391
    59   6 C        3.755    -0.122    22.888     6.822
    60   1 H        0.925     0.042     2.419     2.432
    61   1 H        0.925     0.053     2.284     2.363
    62   1 H        0.925     0.050     2.322     2.383
    63   5 B        2.626     0.401    16.062     6.775
    64   8 O        1.637    -0.379    20.454     6.105
    65   6 C        3.832     0.125    18.528     6.124
    66   6 C        3.755    -0.130    23.062     6.847
    67   1 H        0.925     0.059     2.211     2.325
    68   1 H        0.925     0.054     2.275     2.359
    69   1 H        0.925     0.050     2.314     2.379
    70   6 C        3.755    -0.129    23.037     6.844
    71   1 H        0.925     0.060     2.195     2.317
    72   1 H        0.925     0.051     2.307     2.375
    73   1 H        0.925     0.052     2.295     2.369
    74   6 C        3.829     0.127    18.500     6.120
    75   8 O        1.637    -0.379    20.449     6.104
    76   6 C        3.755    -0.124    22.941     6.829
    77   1 H        0.925     0.051     2.305     2.374
    78   1 H        0.925     0.054     2.270     2.356
    79   1 H        0.925     0.055     2.260     2.351
    80   6 C        3.755    -0.123    22.906     6.824
    81   1 H        0.925     0.041     2.438     2.442
    82   1 H        0.925     0.050     2.317     2.381
    83   1 H        0.925     0.055     2.259     2.351
    84   1 H        0.926     0.054     2.265     2.353
    85   1 H        0.926     0.051     2.303     2.373
    86   6 C        2.828    -0.023    28.564     8.758
    87   6 C        2.930    -0.029    28.724     8.789
    88   6 C        2.927    -0.035    28.860     8.810
    89   6 C        3.039    -0.042    28.999     8.833
    90   1 H        0.926     0.034     2.530     2.487
    91   6 C        3.036    -0.038    28.903     8.818
    92   1 H        0.926     0.050     2.314     2.379
    93   6 C        2.958     0.046    26.968     8.518
    94   1 H        0.926     0.042     2.420     2.432
    95   1 H        0.926     0.047     2.356     2.400
    96  53 I        1.204    -0.174   384.910    33.868

 Mol. C6AA /au·bohr⁶  :     108870.594261
 Mol. C8AA /au·bohr⁸  :    3225323.118048
 Mol. α(0) /au        :        516.130023


Wiberg/Mayer (AO) data.
largest (>0.10) Wiberg bond orders for each atom

 ---------------------------------------------------------------------------
     #   Z sym  total        # sym  WBO       # sym  WBO       # sym  WBO
 ---------------------------------------------------------------------------
     1   7 N    3.402 --     6 C    1.390     2 C    1.313    19 Ir   0.439
     2   6 C    3.979 --     3 C    1.349     1 N    1.313    10 C    1.090
     3   6 C    3.988 --     4 C    1.483     2 C    1.349     9 H    0.962
                             6 C    0.106
     4   6 C    3.985 --     3 C    1.483     5 C    1.384    84 H    0.969
     5   6 C    3.979 --     6 C    1.459     4 C    1.384     8 H    0.968
     6   6 C    3.978 --     5 C    1.459     1 N    1.390     7 H    0.957
                             3 C    0.106
     7   1 H    0.997 --     6 C    0.957
     8   1 H    0.996 --     5 C    0.968
     9   1 H    0.997 --     3 C    0.962
    10   6 C    3.979 --    15 C    1.355    11 N    1.305     2 C    1.090
    11   7 N    3.402 --    12 C    1.386    10 C    1.305    19 Ir   0.428
    12   6 C    3.973 --    13 C    1.457    11 N    1.386    18 H    0.948
                            15 C    0.105
    13   6 C    3.982 --    12 C    1.457    14 C    1.386    17 H    0.969
    14   6 C    3.982 --    15 C    1.477    13 C    1.386    85 H    0.969
    15   6 C    3.989 --    14 C    1.477    10 C    1.355    16 H    0.961
                            12 C    0.105
    16   1 H    0.997 --    15 C    0.961
    17   1 H    0.996 --    13 C    0.969
    18   1 H    0.994 --    12 C    0.948
    19  77 Ir   5.163 --    63 B    0.865    42 B    0.858    21 B    0.727
                            86 C    0.589    20 H    0.532     1 N    0.439
                            11 N    0.428
    20   1 H    0.989 --    19 Ir   0.532    86 C    0.351
    21   5 B    3.274 --    33 O    1.112    22 O    1.093    19 Ir   0.727
    22   8 O    2.193 --    21 B    1.093    23 C    0.942
    23   6 C    3.943 --    24 C    0.997    28 C    0.990    22 O    0.942
                            32 C    0.941
    24   6 C    3.994 --    23 C    0.997    26 H    0.984    27 H    0.983
                            25 H    0.983
    25   1 H    0.997 --    24 C    0.983
    26   1 H    0.997 --    24 C    0.984
    27   1 H    0.997 --    24 C    0.983
    28   6 C    3.997 --    23 C    0.990    31 H    0.985    30 H    0.984
                            29 H    0.984
    29   1 H    0.997 --    28 C    0.984
    30   1 H    0.998 --    28 C    0.984
    31   1 H    0.999 --    28 C    0.985
    32   6 C    3.940 --    38 C    0.997    34 C    0.991    23 C    0.941
                            33 O    0.938
    33   8 O    2.202 --    21 B    1.112    32 C    0.938
    34   6 C    3.994 --    32 C    0.991    36 H    0.984    37 H    0.982
                            35 H    0.982
    35   1 H    0.997 --    34 C    0.982
    36   1 H    0.997 --    34 C    0.984
    37   1 H    0.997 --    34 C    0.982
    38   6 C    3.994 --    32 C    0.997    41 H    0.984    39 H    0.983
                            40 H    0.983
    39   1 H    0.998 --    38 C    0.983
    40   1 H    0.997 --    38 C    0.983
    41   1 H    0.997 --    38 C    0.984
    42   5 B    3.334 --    43 O    1.117    54 O    1.108    19 Ir   0.858
    43   8 O    2.225 --    42 B    1.117    44 C    0.935
    44   6 C    3.937 --    45 C    0.997    49 C    0.991    53 C    0.939
                            43 O    0.935
    45   6 C    3.993 --    44 C    0.997    48 H    0.983    46 H    0.982
                            47 H    0.982
    46   1 H    0.997 --    45 C    0.982
    47   1 H    0.997 --    45 C    0.982
    48   1 H    0.996 --    45 C    0.983
    49   6 C    3.994 --    44 C    0.991    50 H    0.983    51 H    0.982
                            52 H    0.979
    50   1 H    0.997 --    49 C    0.983
    51   1 H    0.998 --    49 C    0.982
    52   1 H    0.997 --    49 C    0.979
    53   6 C    3.938 --    55 C    0.996    59 C    0.992    44 C    0.939
                            54 O    0.934
    54   8 O    2.227 --    42 B    1.108    53 C    0.934
    55   6 C    3.993 --    53 C    0.996    58 H    0.983    57 H    0.983
                            56 H    0.982
    56   1 H    0.997 --    55 C    0.982
    57   1 H    0.997 --    55 C    0.983
    58   1 H    0.996 --    55 C    0.983
    59   6 C    3.994 --    53 C    0.992    62 H    0.983    61 H    0.983
                            60 H    0.982
    60   1 H    0.998 --    59 C    0.982
    61   1 H    0.996 --    59 C    0.983
    62   1 H    0.997 --    59 C    0.983
    63   5 B    3.363 --    75 O    1.123    64 O    1.111    19 Ir   0.865
    64   8 O    2.228 --    63 B    1.111    65 C    0.937
    65   6 C    3.937 --    70 C    0.996    66 C    0.991    74 C    0.938
                            64 O    0.937
    66   6 C    3.992 --    65 C    0.991    69 H    0.983    68 H    0.983
                            67 H    0.979
    67   1 H    0.996 --    66 C    0.979
    68   1 H    0.997 --    66 C    0.983
    69   1 H    0.996 --    66 C    0.983
    70   6 C    3.992 --    65 C    0.996    72 H    0.983    73 H    0.982
                            71 H    0.982
    71   1 H    0.996 --    70 C    0.982
    72   1 H    0.996 --    70 C    0.983
    73   1 H    0.997 --    70 C    0.982
    74   6 C    3.935 --    76 C    0.996    80 C    0.991    65 C    0.938
                            75 O    0.935
    75   8 O    2.236 --    63 B    1.123    74 C    0.935
    76   6 C    3.992 --    74 C    0.996    77 H    0.983    78 H    0.982
                            79 H    0.982
    77   1 H    0.996 --    76 C    0.983
    78   1 H    0.997 --    76 C    0.982
    79   1 H    0.997 --    76 C    0.982
    80   6 C    3.995 --    74 C    0.991    81 H    0.984    83 H    0.983
                            82 H    0.983
    81   1 H    0.998 --    80 C    0.984
    82   1 H    0.997 --    80 C    0.983
    83   1 H    0.996 --    80 C    0.983
    84   1 H    0.996 --     4 C    0.969
    85   1 H    0.996 --    14 C    0.969
    86   6 C    3.947 --    87 C    1.385    88 C    1.375    19 Ir   0.589
                            20 H    0.351
    87   6 C    3.990 --    89 C    1.430    86 C    1.385    90 H    0.962
                            91 C    0.102
    88   6 C    3.989 --    91 C    1.445    86 C    1.375    92 H    0.958
                            89 C    0.105
    89   6 C    3.987 --    87 C    1.430    93 C    1.425    94 H    0.969
                            88 C    0.105
    90   1 H    0.999 --    87 C    0.962
    91   6 C    3.987 --    88 C    1.445    93 C    1.412    95 H    0.968
                            87 C    0.102
    92   1 H    0.997 --    88 C    0.958
    93   6 C    3.935 --    89 C    1.425    91 C    1.412    96 I    0.941
    94   1 H    0.998 --    89 C    0.969
    95   1 H    0.996 --    91 C    0.968
    96  53 I    1.047 --    93 C    0.941
 ---------------------------------------------------------------------------

Topologies differ in total number of bonds
Writing topology from bond orders to xtbtopo.mol

molecular dipole:
                 x           y           z       tot (Debye)
 q only:        0.416       0.575      -2.321
   full:       -0.588       0.875      -3.427       9.114
molecular quadrupole (traceless):
                xx          xy          yy          xz          yz          zz
 q only:       27.617      -0.264       9.699       9.827      22.384     -37.316
  q+dip:       40.446       0.637      16.240      16.062      31.961     -56.685
   full:       36.893       1.302      18.205      13.331      28.828     -55.098


           -------------------------------------------------
          | TOTAL ENERGY             -139.742318162472 Eh   |
          | GRADIENT NORM               0.034072354666 Eh/α |
          | HOMO-LUMO GAP               0.904111983632 eV   |
           -------------------------------------------------

------------------------------------------------------------------------
 * finished run on 2021/10/08 at 07:28:45.413     
------------------------------------------------------------------------
 total:
 * wall-time:     0 d,  0 h,  0 min,  0.142 sec
 *  cpu-time:     0 d,  0 h,  0 min,  0.830 sec
 * ratio c/w:     5.863 speedup
 SCF:
 * wall-time:     0 d,  0 h,  0 min,  0.104 sec
 *  cpu-time:     0 d,  0 h,  0 min,  0.623 sec
 * ratio c/w:     5.974 speedup

