96
 energy: -139.727165393006 gnorm: 0.075754171527 xtb: 6.4.0 (f63f532)
N        -0.96510000000000   -2.11530000000000   -0.24090000000000
C        -2.24700000000000   -1.69840000000000   -0.36220000000000
C        -3.14040000000000   -2.36820000000000   -1.21200000000000
C        -2.70220000000000   -3.47560000000000   -1.93050000000000
C        -1.37780000000000   -3.89880000000000   -1.78760000000000
C        -0.54290000000000   -3.18670000000000   -0.93510000000000
H         0.49810000000000   -3.45630000000000   -0.78940000000000
H        -0.99570000000000   -4.76030000000000   -2.32770000000000
H        -4.16500000000000   -2.02890000000000   -1.31830000000000
C        -2.62130000000000   -0.50950000000000    0.44100000000000
N        -1.62600000000000    0.07330000000000    1.16020000000000
C        -1.89680000000000    1.15240000000000    1.91690000000000
C        -3.17230000000000    1.70330000000000    1.99650000000000
C        -4.20510000000000    1.11740000000000    1.26270000000000
C        -3.92610000000000    0.00250000000000    0.47820000000000
H        -4.71960000000000   -0.46420000000000   -0.09520000000000
H        -3.34630000000000    2.57510000000000    2.62070000000000
H        -1.04450000000000    1.57420000000000    2.43690000000000
Ir        0.42150000000000   -0.81650000000000    0.91330000000000
H         0.87260000000000   -2.23030000000000    1.54050000000000
B         0.50670000000000    0.41560000000000   -0.81540000000000
O         0.19500000000000   -0.04700000000000   -2.09150000000000
C         0.00650000000000    1.10040000000000   -2.95430000000000
C         0.49020000000000    0.74740000000000   -4.35780000000000
H         1.51610000000000    0.37380000000000   -4.33700000000000
H         0.44730000000000    1.62240000000000   -5.01670000000000
H        -0.14740000000000   -0.03390000000000   -4.78430000000000
C        -1.50120000000000    1.39560000000000   -2.96670000000000
H        -1.75370000000000    2.21460000000000   -3.64850000000000
H        -2.03200000000000    0.49450000000000   -3.28930000000000
H        -1.85170000000000    1.65210000000000   -1.96220000000000
C         0.84230000000000    2.20670000000000   -2.22040000000000
O         0.75200000000000    1.78260000000000   -0.83690000000000
C         2.32930000000000    2.18620000000000   -2.59900000000000
H         2.74130000000000    1.18500000000000   -2.45750000000000
H         2.48870000000000    2.51300000000000   -3.63180000000000
H         2.87200000000000    2.86270000000000   -1.93200000000000
C         0.28440000000000    3.62290000000000   -2.33660000000000
H        -0.72650000000000    3.69040000000000   -1.92910000000000
H         0.92130000000000    4.31480000000000   -1.77610000000000
H         0.26430000000000    3.94810000000000   -3.38320000000000
B         1.56300000000000    0.60960000000000    1.84840000000000
O         2.92780000000000    0.55230000000000    2.15020000000000
C         3.36330000000000    1.88660000000000    2.50260000000000
C         4.53140000000000    1.78590000000000    3.47740000000000
H         4.27910000000000    1.16090000000000    4.33690000000000
H         5.39390000000000    1.33790000000000    2.97340000000000
H         4.82390000000000    2.77870000000000    3.83820000000000
C         3.79700000000000    2.56850000000000    1.19670000000000
H         4.20020000000000    3.57090000000000    1.37680000000000
H         4.56740000000000    1.95560000000000    0.72110000000000
H         2.95240000000000    2.63260000000000    0.50540000000000
C         2.05040000000000    2.50090000000000    3.09320000000000
O         1.03750000000000    1.81620000000000    2.31910000000000
C         1.89100000000000    4.00450000000000    2.88650000000000
H         1.87290000000000    4.25440000000000    1.82410000000000
H         0.94940000000000    4.34260000000000    3.33170000000000
H         2.71080000000000    4.55150000000000    3.36630000000000
C         1.82470000000000    2.13200000000000    4.56520000000000
H         1.92610000000000    1.05330000000000    4.71320000000000
H         2.52610000000000    2.65280000000000    5.22540000000000
H         0.80630000000000    2.41580000000000    4.84900000000000
B         2.27820000000000   -1.33090000000000    0.17410000000000
O         2.89460000000000   -2.57740000000000    0.38450000000000
C         4.26930000000000   -2.48200000000000   -0.07210000000000
C         5.10900000000000   -2.05380000000000    1.14010000000000
H         4.76350000000000   -1.08740000000000    1.51750000000000
H         4.98050000000000   -2.79470000000000    1.93590000000000
H         6.17420000000000   -1.99290000000000    0.89300000000000
C         4.71950000000000   -3.84660000000000   -0.58470000000000
H         4.75280000000000   -4.56130000000000    0.24420000000000
H         5.72330000000000   -3.78370000000000   -1.02010000000000
H         4.03500000000000   -4.23600000000000   -1.34170000000000
C         4.16440000000000   -1.36220000000000   -1.16300000000000
O         3.08520000000000   -0.55030000000000   -0.65400000000000
C         5.40720000000000   -0.48870000000000   -1.31550000000000
H         6.27320000000000   -1.09010000000000   -1.61530000000000
H         5.23300000000000    0.26930000000000   -2.08590000000000
H         5.64270000000000    0.02650000000000   -0.38240000000000
C         3.71800000000000   -1.89830000000000   -2.53110000000000
H         2.82530000000000   -2.52160000000000   -2.42740000000000
H         3.46090000000000   -1.05250000000000   -3.17550000000000
H         4.50570000000000   -2.48290000000000   -3.01790000000000
H        -3.38500000000000   -4.00130000000000   -2.59310000000000
H        -5.21400000000000    1.52080000000000    1.29960000000000
C         0.23590000000000   -1.68140000000000    2.96030000000000
C        -1.00236458723610   -2.09727359861085    3.44716639041312
C         1.33168317803611   -1.82284811343743    3.81977283486546
C        -1.14926239774595   -2.60075282659381    4.73421241312074
H        -1.88640192690785   -2.05350849693458    2.82288969689899
C         1.21274112100238   -2.34589733105045    5.09757296579271
H         2.31602283567539   -1.55544716043488    3.45678561137836
C        -0.03717495006409   -2.74342351342943    5.54818893695622
H        -2.12449439789683   -2.91535178574937    5.08338433703870
H         2.09119169074979   -2.48151791949645    5.71577771302506
I        -0.22602528163037   -3.63276584381012    7.44195860674541
96
 energy: -139.733730882634 gnorm: 0.046957345241 xtb: 6.4.0 (f63f532)
N        -0.96122532726178   -2.09950758868610   -0.25295965392602
C        -2.23926962774725   -1.68961272997679   -0.36571299864971
C        -3.13450616742684   -2.36206945767497   -1.20635525600025
C        -2.70416593750924   -3.46373194869630   -1.92195029742448
C        -1.38429322412478   -3.88242328086736   -1.78304260538108
C        -0.55379668388402   -3.16763421105348   -0.94170205738896
H         0.47993948550131   -3.44758175505781   -0.79219633374583
H        -1.00794707321401   -4.74245437435358   -2.31821617989929
H        -4.15506608323240   -2.02683302923818   -1.31008622600438
C        -2.61059012180058   -0.51178793941501    0.43363167403111
N        -1.61785046811099    0.06981717078149    1.14333580311924
C        -1.89668223101024    1.13928672585593    1.89271553204149
C        -3.16434625554024    1.68681802562365    1.98313498422714
C        -4.19566077449626    1.10260435810806    1.25668572837072
C        -3.91419079851013   -0.00366968792637    0.47583523292978
H        -4.70578395834500   -0.46758641171027   -0.09226099480268
H        -3.33937927644381    2.54953206920897    2.61045730323663
H        -1.05363764225379    1.55719356710870    2.42212930998708
Ir        0.42150000000000   -0.81650000000000    0.91330000000000
H         0.87260000000000   -2.23030000000000    1.54050000000000
B         0.49268822419489    0.42324172415656   -0.79125368678577
O         0.17534506919983   -0.03536298266599   -2.06307913909785
C         0.01021708963983    1.09692710157893   -2.94321376745076
C         0.48916500225295    0.74783090229565   -4.34823756779660
H         1.50820055761933    0.37127637620100   -4.32723350876631
H         0.44413390215219    1.62346228520749   -4.99638293755760
H        -0.14958124182926   -0.02801311582613   -4.76887465830947
C        -1.49394843623419    1.39920775946511   -2.96915390618896
H        -1.73239790326430    2.21224883620934   -3.65312531203754
H        -2.02399284209853    0.50222351959151   -3.28942551379012
H        -1.84063866180539    1.65407519931671   -1.96751134478523
C         0.83177757534696    2.20686766263902   -2.21181127015152
O         0.75577729789376    1.77919475443104   -0.83475341028770
C         2.31422736510918    2.19118087600301   -2.59952925060777
H         2.71896393418049    1.19217823142299   -2.45012273000567
H         2.46548412164244    2.51294586175643   -3.62917614400790
H         2.85644202594624    2.86600851165360   -1.93817269788603
C         0.27996912431931    3.62290222071859   -2.33839747242356
H        -0.72335091509084    3.69190281735887   -1.92617888957181
H         0.91954345134208    4.30669008894297   -1.78182509773126
H         0.26225557338005    3.93557270290770   -3.38252832388611
B         1.56410361435021    0.61634743671529    1.85772945473987
O         2.92436920045528    0.56410853912411    2.13834783366604
C         3.36308659481146    1.88603485019500    2.50975470730172
C         4.53312930586369    1.78859691367764    3.48018599849621
H         4.28155156749122    1.16069858248993    4.33084269601919
H         5.38825163992869    1.34461290304287    2.97228684021465
H         4.81567088386164    2.77895359535557    3.83598045898310
C         3.79858465636038    2.57323337431784    1.21117346463303
H         4.19990843618597    3.56885001986133    1.39541456858227
H         4.56279945019806    1.96205215739049    0.73405710826055
H         2.95043725215675    2.62598541360069    0.52984101309315
C         2.05307502246690    2.50451058676256    3.08997046281707
O         1.04008340823843    1.80836355750227    2.33716861150177
C         1.89389191308857    4.00655419084002    2.88974928497933
H         1.86837229300772    4.25023863861976    1.83148224593982
H         0.95653614415364    4.33558648063317    3.33659512420216
H         2.71438078319748    4.54272604093997    3.36590966656417
C         1.83209880241630    2.13971308553683    4.56209445217007
H         1.93473866111689    1.06384673916602    4.69977925971444
H         2.53310188977429    2.66104140897035    5.21136446252062
H         0.81758428633151    2.41785823011941    4.84699603236486
B         2.27820000000001   -1.33090000000000    0.17410000000000
O         2.90133036081099   -2.56115782447573    0.39193218692645
C         4.26563077472094   -2.48306586566882   -0.07811129859302
C         5.11040640065813   -2.05836975572449    1.12757797162002
H         4.75471589423917   -1.09802434976077    1.49878469401850
H         4.97999634342125   -2.79438025879973    1.92024076383899
H         6.16792678484915   -1.99819236907254    0.87529144164065
C         4.72023688618598   -3.84503677162661   -0.58842683328175
H         4.75044907130501   -4.54979080355659    0.24125021048397
H         5.71783800621245   -3.77315785114298   -1.02086187191681
H         4.03455049350008   -4.23244506668735   -1.33717167673731
C         4.16588503684832   -1.35987340609478   -1.15809440443408
O         3.07332670396758   -0.56357656249758   -0.66186843870273
C         5.40900158949820   -0.49135914198639   -1.31578885504020
H         6.26515847978241   -1.09698851291425   -1.61177563457618
H         5.23054796346832    0.25972340525511   -2.08407748037486
H         5.63710738414533    0.02320352820269   -0.38685186030745
C         3.72888424750698   -1.89884542793946   -2.52625762536203
H         2.83697256140360   -2.51456987948507   -2.41803278276255
H         3.47163924899733   -1.05718790625121   -3.16794347491023
H         4.51908350667791   -2.47558443145702   -3.00404571963336
H        -3.38354685033793   -3.98859902192200   -2.57967561788785
H        -5.19974336202356    1.50336880171927    1.29771693768036
C         0.23589999999999   -1.68140000000000    2.96029999999999
C        -1.00337154219978   -2.09678443360474    3.44452100687966
C         1.32936293382281   -1.81562271908945    3.82585219003946
C        -1.15230319061930   -2.59528266943014    4.73089326747233
H        -1.88442023262447   -2.05734529377620    2.81832775124495
C         1.20516947995211   -2.33324388957383    5.10162849871804
H         2.31235678968352   -1.54609846047398    3.46690715944973
C        -0.04408264949799   -2.73179315088924    5.54621041553029
H        -2.12602961418232   -2.91163003286809    5.07798978419963
H         2.07921057167784   -2.46449614796149    5.72388013760939
I        -0.24082113478183   -3.62995071878349    7.47051100433576
96
 energy: -139.735511395008 gnorm: 0.037928586504 xtb: 6.4.0 (f63f532)
N        -0.95329147792692   -2.09131450504087   -0.26262560457260
C        -2.22893634655053   -1.68257047861807   -0.37034281722419
C        -3.12971889791188   -2.35416684558779   -1.20468856691367
C        -2.70786164144948   -3.45362805054938   -1.92052513942652
C        -1.38846093790522   -3.87229643976617   -1.78599001468453
C        -0.55782538174048   -3.15747493371688   -0.95002346603851
H         0.47443431691565   -3.44143019109810   -0.80809651658563
H        -1.01799700418833   -4.73215111999069   -2.31900670857337
H        -4.14917790237519   -2.02059974406777   -1.29976131009685
C        -2.59675387669891   -0.51333167925148    0.42557005779546
N        -1.60671249915718    0.06449429171380    1.13536065414613
C        -1.89189342670037    1.12759600293597    1.88091295327531
C        -3.15580269363378    1.67422275996808    1.97590776609855
C        -4.18748470708746    1.09001769538034    1.25074744562009
C        -3.90146203103339   -0.00915813085684    0.46907472051460
H        -4.69083877838353   -0.47563347758593   -0.09535735117171
H        -3.33188299495937    2.53132382050377    2.60499444484541
H        -1.05395890217991    1.55089878668399    2.41077848201261
Ir        0.42150000000000   -0.81650000000000    0.91330000000000
H         0.87260000000000   -2.23030000000000    1.54050000000000
B         0.49474673521077    0.43311378742007   -0.76946949227489
O         0.15530225841069   -0.02539684627860   -2.03372304566473
C         0.00492322700732    1.09499301823138   -2.92330322780850
C         0.48838490064438    0.74179513999246   -4.32601427346654
H         1.50369530513700    0.36173314835166   -4.30624259805394
H         0.44325073915318    1.62074987772241   -4.96397991620322
H        -0.15420219808405   -0.02784136385473   -4.74541403100277
C        -1.49744082416783    1.40647811227147   -2.96800862963911
H        -1.71771880116492    2.21597811347769   -3.65720197606440
H        -2.02687661371091    0.51206242940452   -3.28943437942052
H        -1.84638708982362    1.66439474340250   -1.97028309860126
C         0.82320102299635    2.20702546057752   -2.19813883497706
O         0.75950429764150    1.78259554960830   -0.82594526799056
C         2.30286117011651    2.19712984895854   -2.59665183843475
H         2.70519977063296    1.19988584016157   -2.44087886736208
H         2.44048939644187    2.51207530948658   -3.62705764787819
H         2.84490474168385    2.87642276413709   -1.94347978002857
C         0.26870784848647    3.62151729039498   -2.33298665204289
H        -0.73032200600813    3.69602376051121   -1.91703081396114
H         0.91341380616616    4.30383370498399   -1.78578314418112
H         0.25124970300929    3.91800380122964   -3.37831555361210
B         1.56656926878227    0.62258463121218    1.86526031804979
O         2.92239498162412    0.57354520767640    2.12815825549929
C         3.36188425850790    1.88617183179056    2.51330340382961
C         4.53087802752125    1.78811811273149    3.48558973684598
H         4.28327709325783    1.15568648541533    4.33100013406062
H         5.38349380456419    1.35166084355723    2.97284198820023
H         4.80346027766764    2.77806236032958    3.83950617198679
C         3.80140795719448    2.58352995680651    1.22204433602575
H         4.19925570597440    3.57510721591805    1.41460199281976
H         4.56478910679153    1.97536684375713    0.74458503868588
H         2.95163744468829    2.63082886245172    0.54550218334676
C         2.05397832331703    2.50351190937387    3.09270880047491
O         1.04217033260329    1.80064302216818    2.35335527030490
C         1.89617787408056    4.00531226234864    2.89096554769700
H         1.86259324541838    4.24759272349551    1.83484810400281
H         0.96390218184339    4.33034975852068    3.34432322227621
H         2.72028529569243    4.53269839427705    3.36245410211503
C         1.84341086964298    2.14654703860949    4.56892652224916
H         1.94893557926392    1.07222103893980    4.70065242037175
H         2.54681509198632    2.67148515367391    5.20705367257671
H         0.83100237528471    2.42127543821552    4.85542570877908
B         2.27820000000002   -1.33089999999999    0.17410000000000
O         2.90411787817744   -2.54845065339611    0.40115867813228
C         4.25904449252727   -2.48068440064502   -0.07937863218597
C         5.11547475220010   -2.06000722049099    1.11895507542424
H         4.75492422422236   -1.10282727014506    1.48777150799662
H         4.98683865591233   -2.79514427149587    1.90905344665324
H         6.16708392314648   -2.00044170292647    0.85702481421006
C         4.71239309035938   -3.84199471263604   -0.59327996469624
H         4.74561557414188   -4.54069744656144    0.23747072115581
H         5.70566624148714   -3.76054916740601   -1.02512627668051
H         4.02633160403718   -4.23073197646749   -1.33735369629661
C         4.16095575199893   -1.35914572667694   -1.15700155924018
O         3.06045011484448   -0.57289727764939   -0.67038321420806
C         5.40505428570458   -0.49179838682141   -1.31091175363380
H         6.25352298980477   -1.10440820137470   -1.60168212583920
H         5.22754777061948    0.25257194638316   -2.08192123353819
H         5.62997817984253    0.02491732706061   -0.38520959982216
C         3.73861725791847   -1.90126534003175   -2.52899000874710
H         2.84793588995709   -2.51451695031321   -2.42028370674976
H         3.48484059946061   -1.06129360561520   -3.17069407583333
H         4.53523994231330   -2.47307391616327   -2.99418912879753
H        -3.38923502813607   -3.97926074650317   -2.57093621312957
H        -5.19065091972651    1.48500229227322    1.29718561821479
C         0.23589999999998   -1.68139999999999    2.96029999999997
C        -1.00507774591634   -2.09802197213556    3.43979020900808
C         1.32421220244438   -1.80379019610048    3.83625469770840
C        -1.16096341842197   -2.58843610650814    4.72857655070434
H        -1.88180142932519   -2.06582086937998    2.80830511036908
C         1.19234554081482   -2.31197438050872    5.11412457539199
H         2.30699508111140   -1.53073652881457    3.48274381587574
C        -0.05792568791428   -2.71113914777658    5.54768442908401
H        -2.13474816206955   -2.90606775071177    5.07195450070496
H         2.06054665279981   -2.43295487057792    5.74521935268309
I        -0.26252912290566   -3.59693513090272    7.47086903151326
96
 energy: -139.736294310025 gnorm: 0.037263167530 xtb: 6.4.0 (f63f532)
N        -0.94350714077716   -2.08796049482272   -0.27420096421408
C        -2.21984403285851   -1.67910918471406   -0.37613209206520
C        -3.12629426453628   -2.35041654357598   -1.20577139533212
C        -2.71069972598073   -3.45031610524431   -1.92311120746023
C        -1.38928098095827   -3.86897270565330   -1.79559995822059
C        -0.55414444746311   -3.15315572986488   -0.96471282987845
H         0.47831459617983   -3.44073807171831   -0.82921702830749
H        -1.02332002319039   -4.72971905590350   -2.32907805410275
H        -4.14571390145437   -2.01529231976784   -1.29393862501103
C        -2.58557589542967   -0.51392501466129    0.42007872435052
N        -1.59607810030899    0.06379991026604    1.13111972983124
C        -1.88473183231856    1.12559576707234    1.87587404024465
C        -3.14950093591167    1.66882057219870    1.97443922613471
C        -4.18204045742588    1.08222156445835    1.24961986163151
C        -3.89213657077623   -0.01276229840880    0.46500302955668
H        -4.67920959792159   -0.48085087534958   -0.10089760736202
H        -3.32721367729544    2.52278510519013    2.60603615372463
H        -1.04986179532757    1.55201823393415    2.40856871946945
Ir        0.42150000000000   -0.81650000000000    0.91330000000000
H         0.87260000000000   -2.23030000000000    1.54050000000000
B         0.48320238560504    0.44682576635672   -0.75025826525397
O         0.13315747695275   -0.01625379478553   -2.00959394878541
C        -0.00505722467431    1.09621332059132   -2.90500332231623
C         0.48551373016191    0.73377895801655   -4.30374216619769
H         1.49839792593998    0.34809333485836   -4.27869380163876
H         0.44696102016946    1.61320662233883   -4.94066757386937
H        -0.16030482290437   -0.03259994362902   -4.72357164226102
C        -1.50630169729030    1.41596938865429   -2.96578598258543
H        -1.71173200956733    2.22369074602897   -3.66091252969544
H        -2.03659951568202    0.52314085660692   -3.28936501603408
H        -1.86323619229304    1.67981756207645   -1.97267765467495
C         0.81434856264788    2.21027170365220   -2.18398858640187
O         0.76029640794377    1.79137537561319   -0.81323784867385
C         2.29231881209079    2.20317650745224   -2.59240663587009
H         2.69737110916922    1.20801026183616   -2.43119548123344
H         2.41970241027888    2.51079436264243   -3.62584197111432
H         2.83538026908143    2.88962701615178   -1.94792691504231
C         0.25733427053750    3.62415550807401   -2.32483898060875
H        -0.73929722838881    3.70208363713716   -1.90425523064413
H         0.90590880613986    4.31049145984210   -1.78758443837981
H         0.23475763596691    3.90862227127536   -3.37303081942727
B         1.56777993204933    0.62462263589710    1.87177237092637
O         2.92342877647675    0.57888984604228    2.11881837631558
C         3.36192008759064    1.88635022652885    2.51547543402877
C         4.53053936123081    1.78536320651494    3.48951974704856
H         4.28555598017432    1.14672453171210    4.33079879758686
H         5.38521351277268    1.35674391088359    2.97395360152526
H         4.79594709811755    2.77509480051176    3.84837398262200
C         3.80460180689969    2.59502331565518    1.23042456939816
H         4.19850939974162    3.58564874541808    1.43251728721923
H         4.57125202893412    1.99200317577328    0.75194123485735
H         2.95599328086930    2.64340333083084    0.55296218564110
C         2.05482424721918    2.50162460354939    3.09874902336094
O         1.04174120025073    1.79354409221398    2.36990836083407
C         1.89537086746711    4.00373082813726    2.89395196083694
H         1.85310488710689    4.24446087917312    1.83784894936915
H         0.96757704009997    4.32977292233579    3.35530621624285
H         2.72481460299936    4.52870142820929    3.35783940430572
C         1.85495219881495    2.15186591183518    4.57930556099563
H         1.96409112910803    1.07847022049481    4.71319414196262
H         2.56214245910546    2.68208277983033    5.20802492854426
H         0.84388890956283    2.42551476864443    4.87040899026288
B         2.27820000000002   -1.33089999999998    0.17410000000000
O         2.90647368659968   -2.54133104565251    0.41087507792899
C         4.25473817607549   -2.47882254081530   -0.07969680677563
C         5.12232205046288   -2.06033860799193    1.11257294604339
H         4.76316741478030   -1.10386613085721    1.48393902913701
H         4.99866955213605   -2.79662673867660    1.90198725062049
H         6.17087478906389   -2.00105899997485    0.84103651730125
C         4.70368759752586   -3.84162029356406   -0.59638219219535
H         4.74157196397168   -4.53908215135499    0.23485271467084
H         5.69425966595709   -3.75664755250597   -1.03256761154654
H         4.01437141734639   -4.23078256131968   -1.33697129205277
C         4.15617807001673   -1.35864335930951   -1.15856598900847
O         3.04997405749321   -0.57782300645903   -0.68040182637892
C         5.40007055425850   -0.48899988533162   -1.30715759961214
H         6.24790494084180   -1.10522450700696   -1.59079536956065
H         5.22630296384850    0.25149794533134   -2.08238433862303
H         5.62034573039431    0.03088538186616   -0.38236145253715
C         3.74703319877840   -1.90392102513674   -2.53438716787303
H         2.85715086027540   -2.51870111211492   -2.43142616621014
H         3.49824594697694   -1.06495597330615   -3.17909623686742
H         4.55045919272154   -2.47378387792885   -2.98898200932256
H        -3.39611936779754   -3.97596505047934   -2.56877116158214
H        -5.18647005190633    1.47251171216835    1.29931245703284
C         0.23589999999997   -1.68139999999997    2.96029999999996
C        -1.00709070352428   -2.09970533612726    3.43264411558828
C         1.31761042503475   -1.78908345411265    3.84681313251690
C        -1.17223135342951   -2.57971114974815    4.72475975279593
H        -1.87829183687351   -2.07807121304585    2.79269375969872
C         1.17676468448220   -2.28508500347008    5.12875649942483
H         2.30132597340804   -1.51277443069508    3.49868407186938
C        -0.07536374755001   -2.68857212241568    5.55403032397820
H        -2.14742122508836   -2.89922954839202    5.06184055742573
H         2.03935339586754   -2.39267964749009    5.77001607282673
I        -0.29457061448631   -3.55476347080215    7.48988322291464
96
 energy: -139.737299092504 gnorm: 0.037496800019 xtb: 6.4.0 (f63f532)
N        -0.92967582711023   -2.08731799394477   -0.28971437032583
C        -2.20761624351282   -1.67731570762392   -0.38433611616971
C        -3.12029203720485   -2.34769124986101   -1.20991025020746
C        -2.71193389617344   -3.44799081793092   -1.93029194262262
C        -1.38760804739890   -3.86609903489586   -1.81336930246691
C        -0.54583053620861   -3.15016762176162   -0.98778694527388
H         0.48851035175801   -3.43931953196251   -0.86441898804868
H        -1.02668852876243   -4.72695246077646   -2.35047792232178
H        -4.13999506801842   -2.01010248893717   -1.28933502926373
C        -2.57119114858500   -0.51590200002111    0.41446144037125
N        -1.58227232215860    0.06034157492544    1.13069916679875
C        -1.87431174369255    1.12294808580101    1.87495346788478
C        -3.14062148984144    1.66255642077222    1.97531364636037
C        -4.17374823153530    1.07385176190649    1.24947871810254
C        -3.87920689887386   -0.01565522969209    0.45965202024729
H        -4.66323621109993   -0.48444234118467   -0.11044570191953
H        -3.32032886386108    2.51385176957837    2.60987580223975
H        -1.04209825525846    1.55476138000250    2.40874684562503
Ir        0.42150000000000   -0.81650000000000    0.91330000000000
H         0.87260000000000   -2.23030000000001    1.54050000000000
B         0.47881489169128    0.46596602583612   -0.72465530541927
O         0.09858515069969   -0.00041230434309   -1.97450587685787
C        -0.02407273812183    1.10167479650922   -2.87727354078801
C         0.47728804217004    0.72038954498892   -4.26863156688825
H         1.48558656328688    0.32248951553709   -4.22896875439524
H         0.45547482866236    1.59598801074807   -4.91230079548031
H        -0.17351026143499   -0.04241907325556   -4.68820796890619
C        -1.52311981151002    1.43446864117113   -2.96123008058988
H        -1.70880496791230    2.23934795831607   -3.66559567843441
H        -2.05610095915188    0.54398681216421   -3.28760843296694
H        -1.89481919430042    1.70914523646071   -1.97598263337597
C         0.80057559369000    2.21932046014918   -2.16368935742383
O         0.76220403499626    1.80659998146851   -0.79394508452528
C         2.27616464492568    2.21596447748643   -2.58577099736600
H         2.68823689218552    1.22487600575254   -2.41487797559172
H         2.39044103793903    2.51044164359167   -3.62472252035454
H         2.82077718012897    2.91516228588740   -1.95565038219881
C         0.23792365144243    3.63177331746635   -2.31040323258975
H        -0.75440729262867    3.71258865877987   -1.87921977709749
H         0.89190357290957    4.32667132721212   -1.78969808575121
H         0.20186556244868    3.90223592013085   -3.36243216980806
B         1.56964291638241    0.62760682622677    1.87705285435312
O         2.92703739843354    0.58763119286142    2.10269631500230
C         3.36407478062928    1.88837165502701    2.51815773052215
C         4.53221982157282    1.77886484125276    3.49407392895547
H         4.29022833843418    1.12744404117388    4.32706375629468
H         5.39188215788835    1.36366316700603    2.97465902895542
H         4.78893758712411    2.76641404159350    3.86703828330885
C         3.81151255670469    2.61559828832737    1.24340565881581
H         4.19830660460157    3.60603382596021    1.46149558511622
H         4.58575811189494    2.02299544107399    0.76305757663089
H         2.96694780449035    2.66860133923575    0.56096417802382
C         2.05746724904994    2.49859514094266    3.11137001367752
O         1.04073450014429    1.78295233554921    2.39791233259772
C         1.89223998898832    4.00066035793569    2.90064816871576
H         1.83314107762146    4.23718081387969    1.84373583286823
H         0.97203121723511    4.32980883366806    3.37631328676221
H         2.73029121219958    4.52729844888040    3.34856612019197