      -----------------------------------------------------------      
     |                   =====================                   |     
     |                           x T B                           |     
     |                   =====================                   |     
     |                         S. Grimme                         |     
     |          Mulliken Center for Theoretical Chemistry        |     
     |                    University of Bonn                     |     
      -----------------------------------------------------------      

   * xtb version 6.4.1 (1a32961) compiled by 'knkr256@seskscpg007.prim.scp' on 2021-10-19

   xtb is free software: you can redistribute it and/or modify it under
   the terms of the GNU Lesser General Public License as published by
   the Free Software Foundation, either version 3 of the License, or
   (at your option) any later version.
   
   xtb is distributed in the hope that it will be useful,
   but WITHOUT ANY WARRANTY; without even the implied warranty of
   MERCHANTABILITY or FITNESS FOR A PARTICULAR PURPOSE.  See the
   GNU Lesser General Public License for more details.
   
   Cite this work as:
   * C. Bannwarth, E. Caldeweyher, S. Ehlert, A. Hansen, P. Pracht,
     J. Seibert, S. Spicher, S. Grimme, WIREs Comput. Mol. Sci., 2020, 11,
     e01493. DOI: 10.1002/wcms.1493
   
   for GFN2-xTB:
   * C. Bannwarth, S. Ehlert and S. Grimme., J. Chem. Theory Comput., 2019,
     15, 1652-1671. DOI: 10.1021/acs.jctc.8b01176
   for GFN1-xTB:
   * S. Grimme, C. Bannwarth, P. Shushkov, J. Chem. Theory Comput., 2017,
     13, 1989-2009. DOI: 10.1021/acs.jctc.7b00118
   for GFN0-xTB:
   * P. Pracht, E. Caldeweyher, S. Ehlert, S. Grimme, ChemRxiv, 2019, preprint.
     DOI: 10.26434/chemrxiv.8326202.v1
   for GFN-FF:
   * S. Spicher and S. Grimme, Angew. Chem. Int. Ed., 2020, 59, 15665-15673.
     DOI: 10.1002/anie.202004239
   
   for ALPB and GBSA implicit solvation:
   * S. Ehlert, M. Stahn, S. Spicher, S. Grimme, J. Chem. Theory Comput.,
     2021, 17, 4250-4261. DOI: 10.1021/acs.jctc.1c00471
   
   for DFT-D4:
   * E. Caldeweyher, C. Bannwarth and S. Grimme, J. Chem. Phys., 2017,
     147, 034112. DOI: 10.1063/1.4993215
   * E. Caldeweyher, S. Ehlert, A. Hansen, H. Neugebauer, S. Spicher,
     C. Bannwarth and S. Grimme, J. Chem. Phys., 2019, 150, 154122.
     DOI: 10.1063/1.5090222
   * E. Caldeweyher, J.-M. Mewes, S. Ehlert and S. Grimme, Phys. Chem. Chem. Phys.
     2020, 22, 8499-8512. DOI: 10.1039/D0CP00502A
   
   for sTDA-xTB:
   * S. Grimme and C. Bannwarth, J. Chem. Phys., 2016, 145, 054103.
     DOI: 10.1063/1.4959605
   
   in the mass-spec context:
   * V. Asgeirsson, C. Bauer and S. Grimme, Chem. Sci., 2017, 8, 4879.
     DOI: 10.1039/c7sc00601b
   * J. Koopman and S. Grimme, ACS Omega 2019, 4, 12, 15120-15133.
     DOI: 10.1021/acsomega.9b02011
   
   for metadynamics refer to:
   * S. Grimme, J. Chem. Theory Comput., 2019, 155, 2847-2862
     DOI: 10.1021/acs.jctc.9b00143
   
   for SPH calculations refer to:
   * S. Spicher and S. Grimme, J. Chem. Theory Comput., 2021, 17, 1701-1714
     DOI: 10.1021/acs.jctc.0c01306
   
   with help from (in alphabetical order)
   P. Atkinson, C. Bannwarth, F. Bohle, G. Brandenburg, E. Caldeweyher
   M. Checinski, S. Dohm, S. Ehlert, S. Ehrlich, I. Gerasimov, J. Koopman
   C. Lavigne, S. Lehtola, F. März, M. Müller, F. Musil, H. Neugebauer
   J. Pisarek, C. Plett, P. Pracht, J. Seibert, P. Shushkov, S. Spicher
   M. Stahn, M. Steiner, T. Strunk, J. Stückrath, T. Rose, and J. Unsleber
   
 * started run on 2022/01/14 at 15:01:04.849     

           -------------------------------------------------
          |                Calculation Setup                |
           -------------------------------------------------

          program call               : xtb xtbopt.xyz --sp --alpb thf -P 6
          hostname                   : seskscpg007.prim.scp
          coordinate file            : xtbopt.xyz
          omp threads                :                     6
          number of atoms            :                    95
          number of electrons        :                   256
          charge                     :                     0
          spin                       :                   0.0
          first test random number   :      0.82360520586671

   ID    Z sym.   atoms
    1    7 N      1, 11, 94
    2    6 C      2-6, 10, 12-15, 23, 24, 28, 32, 34, 38, 44, 45, 49, 53, 55,
                  59, 65, 66, 70, 74, 76, 80, 86-89, 91
    3    1 H      7-9, 16-18, 20, 25-27, 29-31, 35-37, 39-41, 46-48, 50-52,
                  56-58, 60-62, 67-69, 71-73, 77-79, 81-85, 90, 92, 95
    4   77 Ir     19
    5    5 B      21, 42, 63
    6    8 O      22, 33, 43, 54, 64, 75
    7    9 F      93

molecular fragmentation (1/2 indicates fragments):
111111111111111111111111111111111111111111111111111111111111111111111111
11111111111112222222222
# atoms in fragment 1/2:    85    10
 fragment masses (1/2) :      730.32       96.08
CMA distance (Bohr)    :   9.194
constraining FC (au)   :  0.0500

           -------------------------------------------------
          |                 G F N 2 - x T B                 |
           -------------------------------------------------

        Reference                      10.1021/acs.jctc.8b01176
      * Hamiltonian:
        H0-scaling (s, p, d)           1.850000    2.230000    2.230000
        zeta-weighting                 0.500000
      * Dispersion:
        s8                             2.700000
        a1                             0.520000
        a2                             5.000000
        s9                             5.000000
      * Repulsion:
        kExp                           1.500000    1.000000
        rExp                           1.000000
      * Coulomb:
        alpha                          2.000000
        third order                    shell-resolved
        anisotropic                    true
        a3                             3.000000
        a5                             4.000000
        cn-shift                       1.200000
        cn-exp                         4.000000
        max-rad                        5.000000

      * Solvation model:               ALPB
        Solvent                        thf
        Parameter file                 internal GFN2-xTB/ALPB
        Dielectric constant                7.6000E+00
        Reference state                gsolv [1 M gas/solution]
        Free energy shift                  5.3248E-03 Eh       3.3414E+00 kcal/mol
        Temperature                        2.9815E+02 K
        Density                            8.8300E-01 kg/L
        Solvent mass                       7.2106E+01 g/mol
        Interaction kernel             P16
        Born radius scaling (c1)           1.7311E+00
        Born radii integrator          GBOBC
        Born offset                        0.0000E+00 a0       0.0000E+00 AA
        H-bond correction              true
        Ion screening                  false
        Surface tension                    1.0000E-05 Eh       1.5569E+01 dyn/cm
        Grid points                               230 per atom
q/qsh data taken from xtbrestart
CAMM data taken from xtbrestart

          ...................................................
          :                      SETUP                      :
          :.................................................:
          :  # basis functions                 242          :
          :  # atomic orbitals                 241          :
          :  # shells                          143          :
          :  # electrons                       256          :
          :  max. iterations                   250          :
          :  Hamiltonian                  GFN2-xTB          :
          :  restarted?                       true          :
          :  GBSA solvation                   true          :
          :  PC potential                    false          :
          :  electronic temp.          300.0000000     K    :
          :  accuracy                    1.0000000          :
          :  -> integral cutoff          0.2500000E+02      :
          :  -> integral neglect         0.1000000E-07      :
          :  -> SCF convergence          0.1000000E-05 Eh   :
          :  -> wf. convergence          0.1000000E-03 e    :
          :  Broyden damping             0.4000000          :
          ...................................................

 iter      E             dE          RMSdq      gap      omega  full diag
   1   -142.6923446 -0.142692E+03  0.188E-05    0.93       0.0  T
   2   -142.6923446  0.723617E-10  0.320E-05    0.93     320.5  T
   3   -142.6923446 -0.849525E-10  0.105E-05    0.93     976.2  T

   *** convergence criteria satisfied after 3 iterations ***

         #    Occupation            Energy/Eh            Energy/eV
      -------------------------------------------------------------
         1        2.0000           -0.8160492             -22.2058
       ...           ...                  ...                  ...
       122        2.0000           -0.3789855             -10.3127
       123        2.0000           -0.3544374              -9.6447
       124        2.0000           -0.3396936              -9.2435
       125        2.0000           -0.3308890              -9.0039
       126        2.0000           -0.3263733              -8.8811
       127        2.0000           -0.3188736              -8.6770
       128        2.0000           -0.3159350              -8.5970 (HOMO)
       129                         -0.2817863              -7.6678 (LUMO)
       130                         -0.2539365              -6.9100
       131                         -0.2510586              -6.8317
       132                         -0.2431308              -6.6159
       133                         -0.2281436              -6.2081
       ...                                ...                  ...
       241                          3.7662422             102.4847
      -------------------------------------------------------------
                  HL-Gap            0.0341487 Eh            0.9292 eV
             Fermi-level           -0.2988396 Eh           -8.1318 eV

 SCC (total)                   0 d,  0 h,  0 min,  0.092 sec
 SCC setup                      ...        0 min,  0.003 sec (  3.366%)
 Dispersion                     ...        0 min,  0.002 sec (  2.500%)
 classical contributions        ...        0 min,  0.000 sec (  0.169%)
 integral evaluation            ...        0 min,  0.011 sec ( 11.797%)
 iterations                     ...        0 min,  0.037 sec ( 39.988%)
 molecular gradient             ...        0 min,  0.038 sec ( 41.373%)
 printout                       ...        0 min,  0.001 sec (  0.721%)

         :::::::::::::::::::::::::::::::::::::::::::::::::::::
         ::                     SUMMARY                     ::
         :::::::::::::::::::::::::::::::::::::::::::::::::::::
         :: total energy            -140.939707462799 Eh    ::
         :: total w/o Gsasa/hb      -140.901994759298 Eh    ::
         :: gradient norm              0.035707680531 Eh/a0 ::
         :: HOMO-LUMO gap              0.929234673758 eV    ::
         ::.................................................::
         :: SCC energy              -142.692344580573 Eh    ::
         :: -> isotropic ES            0.254617177083 Eh    ::
         :: -> anisotropic ES          0.010052259153 Eh    ::
         :: -> anisotropic XC          0.045645526354 Eh    ::
         :: -> dispersion             -0.130865636551 Eh    ::
         :: -> Gsolv                  -0.050044745550 Eh    ::
         ::    -> Gelec               -0.012332042049 Eh    ::
         ::    -> Gsasa               -0.040430503561 Eh    ::
         ::    -> Ghb                 -0.002607015384 Eh    ::
         ::    -> Gshift               0.005324815444 Eh    ::
         :: repulsion energy           1.744831123195 Eh    ::
         :: add. restraining           0.000000000000 Eh    ::
         :: total charge               0.000000001421 e     ::
         :::::::::::::::::::::::::::::::::::::::::::::::::::::

           -------------------------------------------------
          |                Property Printout                |
           -------------------------------------------------

    * Orbital Energies and Occupations

         #    Occupation            Energy/Eh            Energy/eV
      -------------------------------------------------------------
         1        2.0000           -0.8160492             -22.2058
       ...           ...                  ...                  ...
       116        2.0000           -0.4069307             -11.0731
       117        2.0000           -0.4044453             -11.0055
       118        2.0000           -0.3936767             -10.7125
       119        2.0000           -0.3893486             -10.5947
       120        2.0000           -0.3870301             -10.5316
       121        2.0000           -0.3860133             -10.5040
       122        2.0000           -0.3789855             -10.3127
       123        2.0000           -0.3544374              -9.6447
       124        2.0000           -0.3396936              -9.2435
       125        2.0000           -0.3308890              -9.0039
       126        2.0000           -0.3263733              -8.8811
       127        2.0000           -0.3188736              -8.6770
       128        2.0000           -0.3159350              -8.5970 (HOMO)
       129                         -0.2817863              -7.6678 (LUMO)
       130                         -0.2539365              -6.9100
       131                         -0.2510586              -6.8317
       132                         -0.2431308              -6.6159
       133                         -0.2281436              -6.2081
       134                         -0.2099481              -5.7130
       135                         -0.1964156              -5.3447
       136                         -0.1575050              -4.2859
       137                         -0.1313103              -3.5731
       138                         -0.1285907              -3.4991
       139                         -0.1165427              -3.1713
       ...                                ...                  ...
       241                          3.7662422             102.4847
      -------------------------------------------------------------
                  HL-Gap            0.0341487 Eh            0.9292 eV
             Fermi-level           -0.2988396 Eh           -8.1318 eV

     #   Z          covCN         q      C6AA      α(0)
     1   7 N        2.543    -0.120    23.646     7.222
     2   6 C        2.954     0.078    26.255     8.404
     3   6 C        2.918    -0.042    29.054     8.839
     4   6 C        2.924    -0.020    28.518     8.757
     5   6 C        2.915    -0.042    29.049     8.838
     6   6 C        2.893     0.048    26.922     8.507
     7   1 H        0.926     0.057     2.240     2.340
     8   1 H        0.926     0.060     2.193     2.316
     9   1 H        0.926     0.051     2.308     2.376
    10   6 C        2.953     0.074    26.339     8.418
    11   7 N        2.547    -0.129    23.828     7.249
    12   6 C        2.890     0.042    27.064     8.529
    13   6 C        2.915    -0.043    29.070     8.841
    14   6 C        2.923    -0.023    28.571     8.766
    15   6 C        2.919    -0.044    29.104     8.847
    16   1 H        0.926     0.050     2.315     2.379
    17   1 H        0.926     0.055     2.257     2.349
    18   1 H        0.926     0.077     2.008     2.216
    19  77 Ir       5.927    -0.146   387.041    36.381
    20   1 H        0.977     0.095     1.831     2.114
    21   5 B        2.635     0.403    16.002     6.754
    22   8 O        1.638    -0.404    20.935     6.176
    23   6 C        3.837     0.129    18.458     6.112
    24   6 C        3.755    -0.123    22.914     6.826
    25   1 H        0.925     0.055     2.258     2.350
    26   1 H        0.925     0.046     2.365     2.405
    27   1 H        0.925     0.052     2.290     2.366
    28   6 C        3.754    -0.111    22.679     6.791
    29   1 H        0.925     0.049     2.329     2.386
    30   1 H        0.925     0.043     2.410     2.428
    31   1 H        0.925     0.028     2.610     2.526
    32   6 C        3.843     0.130    18.444     6.109
    33   8 O        1.637    -0.400    20.858     6.165
    34   6 C        3.755    -0.123    22.917     6.826
    35   1 H        0.925     0.053     2.281     2.362
    36   1 H        0.925     0.048     2.350     2.398
    37   1 H        0.925     0.051     2.309     2.376
    38   6 C        3.754    -0.121    22.884     6.821
    39   1 H        0.925     0.048     2.348     2.396
    40   1 H        0.925     0.054     2.265     2.353
    41   1 H        0.925     0.047     2.361     2.403
    42   5 B        2.627     0.400    16.065     6.774
    43   8 O        1.637    -0.381    20.489     6.110
    44   6 C        3.838     0.128    18.478     6.115
    45   6 C        3.755    -0.127    23.004     6.839
    46   1 H        0.925     0.055     2.254     2.348
    47   1 H        0.925     0.058     2.224     2.332
    48   1 H        0.925     0.051     2.303     2.373
    49   6 C        3.755    -0.124    22.925     6.827
    50   1 H        0.925     0.050     2.314     2.379
    51   1 H        0.925     0.048     2.345     2.395
    52   1 H        0.925     0.054     2.273     2.357
    53   6 C        3.833     0.127    18.492     6.118
    54   8 O        1.637    -0.382    20.516     6.114
    55   6 C        3.755    -0.126    22.968     6.834
    56   1 H        0.925     0.056     2.246     2.344
    57   1 H        0.925     0.055     2.259     2.350
    58   1 H        0.925     0.050     2.318     2.381
    59   6 C        3.755    -0.124    22.941     6.830
    60   1 H        0.925     0.042     2.420     2.433
    61   1 H        0.925     0.055     2.255     2.348
    62   1 H        0.925     0.050     2.314     2.379
    63   5 B        2.627     0.401    16.058     6.773
    64   8 O        1.637    -0.378    20.431     6.101
    65   6 C        3.832     0.125    18.533     6.125
    66   6 C        3.755    -0.132    23.096     6.852
    67   1 H        0.925     0.060     2.199     2.319
    68   1 H        0.925     0.054     2.265     2.353
    69   1 H        0.925     0.052     2.296     2.370
    70   6 C        3.755    -0.130    23.057     6.847
    71   1 H        0.925     0.061     2.188     2.313
    72   1 H        0.925     0.052     2.295     2.369
    73   1 H        0.925     0.053     2.287     2.365
    74   6 C        3.830     0.127    18.505     6.121
    75   8 O        1.637    -0.375    20.377     6.093
    76   6 C        3.755    -0.126    22.970     6.834
    77   1 H        0.925     0.052     2.291     2.367
    78   1 H        0.925     0.056     2.252     2.347
    79   1 H        0.925     0.056     2.245     2.343
    80   6 C        3.755    -0.124    22.928     6.828
    81   1 H        0.925     0.041     2.430     2.438
    82   1 H        0.925     0.051     2.305     2.374
    83   1 H        0.925     0.056     2.246     2.344
    84   1 H        0.926     0.057     2.229     2.335
    85   1 H        0.926     0.054     2.267     2.354
    86   6 C        2.840    -0.013    28.329     8.723
    87   6 C        2.920    -0.061    29.517     8.909
    88   6 C        2.917    -0.052    29.280     8.873
    89   6 C        2.796     0.242    22.950     7.848
    90   1 H        0.926     0.048     2.346     2.395
    91   6 C        2.932     0.050    26.871     8.501
    92   1 H        0.926     0.060     2.199     2.319
    93   9 F        0.788    -0.256    11.835     4.064
    94   7 N        1.837    -0.269    27.844     7.820
    95   1 H        0.925     0.057     2.234     2.337

 Mol. C6AA /au·bohr⁶  :      96835.234272
 Mol. C8AA /au·bohr⁸  :    2587644.812558
 Mol. α(0) /au        :        481.351942


Wiberg/Mayer (AO) data.
largest (>0.10) Wiberg bond orders for each atom

 ---------------------------------------------------------------------------
     #   Z sym  total        # sym  WBO       # sym  WBO       # sym  WBO
 ---------------------------------------------------------------------------
     1   7 N    3.402 --     6 C    1.392     2 C    1.319    19 Ir   0.430
     2   6 C    3.979 --     3 C    1.352     1 N    1.319    10 C    1.086
     3   6 C    3.988 --     4 C    1.480     2 C    1.352     9 H    0.961
                             6 C    0.106
     4   6 C    3.985 --     3 C    1.480     5 C    1.389    84 H    0.968
     5   6 C    3.978 --     6 C    1.456     4 C    1.389     8 H    0.968
     6   6 C    3.977 --     5 C    1.456     1 N    1.392     7 H    0.957
                             3 C    0.106
     7   1 H    0.996 --     6 C    0.957
     8   1 H    0.995 --     5 C    0.968
     9   1 H    0.997 --     3 C    0.961
    10   6 C    3.978 --    15 C    1.358    11 N    1.310     2 C    1.086
    11   7 N    3.401 --    12 C    1.390    10 C    1.310    19 Ir   0.419
    12   6 C    3.973 --    13 C    1.453    11 N    1.390    18 H    0.947
                            15 C    0.105
    13   6 C    3.981 --    12 C    1.453    14 C    1.392    17 H    0.968
    14   6 C    3.983 --    15 C    1.474    13 C    1.392    85 H    0.968
    15   6 C    3.989 --    14 C    1.474    10 C    1.358    16 H    0.961
                            12 C    0.105
    16   1 H    0.997 --    15 C    0.961
    17   1 H    0.996 --    13 C    0.968
    18   1 H    0.994 --    12 C    0.947
    19  77 Ir   5.147 --    63 B    0.859    42 B    0.853    21 B    0.736
                            86 C    0.597    20 H    0.529     1 N    0.430
                            11 N    0.419
    20   1 H    0.990 --    19 Ir   0.529    86 C    0.353
    21   5 B    3.284 --    33 O    1.117    22 O    1.098    19 Ir   0.736
    22   8 O    2.198 --    21 B    1.098    23 C    0.940
    23   6 C    3.942 --    24 C    0.997    28 C    0.990    32 C    0.941
                            22 O    0.940
    24   6 C    3.993 --    23 C    0.997    26 H    0.983    27 H    0.983
                            25 H    0.982
    25   1 H    0.997 --    24 C    0.982
    26   1 H    0.997 --    24 C    0.983
    27   1 H    0.997 --    24 C    0.983
    28   6 C    3.996 --    23 C    0.990    31 H    0.985    30 H    0.984
                            29 H    0.984
    29   1 H    0.997 --    28 C    0.984
    30   1 H    0.998 --    28 C    0.984
    31   1 H    0.999 --    28 C    0.985
    32   6 C    3.939 --    38 C    0.997    34 C    0.991    23 C    0.941
                            33 O    0.937
    33   8 O    2.206 --    21 B    1.117    32 C    0.937
    34   6 C    3.993 --    32 C    0.991    36 H    0.983    37 H    0.982
                            35 H    0.981
    35   1 H    0.997 --    34 C    0.981
    36   1 H    0.997 --    34 C    0.983
    37   1 H    0.997 --    34 C    0.982
    38   6 C    3.994 --    32 C    0.997    41 H    0.983    39 H    0.983
                            40 H    0.983
    39   1 H    0.998 --    38 C    0.983
    40   1 H    0.997 --    38 C    0.983
    41   1 H    0.997 --    38 C    0.983
    42   5 B    3.341 --    43 O    1.123    54 O    1.113    19 Ir   0.853
    43   8 O    2.229 --    42 B    1.123    44 C    0.933
    44   6 C    3.935 --    45 C    0.997    49 C    0.991    53 C    0.939
                            43 O    0.933
    45   6 C    3.992 --    44 C    0.997    48 H    0.983    46 H    0.982
                            47 H    0.982
    46   1 H    0.997 --    45 C    0.982
    47   1 H    0.996 --    45 C    0.982
    48   1 H    0.996 --    45 C    0.983
    49   6 C    3.993 --    44 C    0.991    50 H    0.983    51 H    0.982
                            52 H    0.980
    50   1 H    0.996 --    49 C    0.983
    51   1 H    0.997 --    49 C    0.982
    52   1 H    0.997 --    49 C    0.980
    53   6 C    3.936 --    55 C    0.997    59 C    0.992    44 C    0.939
                            54 O    0.932
    54   8 O    2.230 --    42 B    1.113    53 C    0.932
    55   6 C    3.992 --    53 C    0.997    58 H    0.983    57 H    0.983
                            56 H    0.982
    56   1 H    0.997 --    55 C    0.982
    57   1 H    0.997 --    55 C    0.983
    58   1 H    0.996 --    55 C    0.983
    59   6 C    3.994 --    53 C    0.992    62 H    0.983    61 H    0.983
                            60 H    0.982
    60   1 H    0.998 --    59 C    0.982
    61   1 H    0.996 --    59 C    0.983
    62   1 H    0.997 --    59 C    0.983
    63   5 B    3.369 --    75 O    1.128    64 O    1.113    19 Ir   0.859
    64   8 O    2.230 --    63 B    1.113    65 C    0.936
    65   6 C    3.936 --    70 C    0.997    66 C    0.991    74 C    0.938
                            64 O    0.936
    66   6 C    3.992 --    65 C    0.991    69 H    0.983    68 H    0.982
                            67 H    0.978
    67   1 H    0.996 --    66 C    0.978
    68   1 H    0.997 --    66 C    0.982
    69   1 H    0.996 --    66 C    0.983
    70   6 C    3.992 --    65 C    0.997    72 H    0.983    73 H    0.982
                            71 H    0.982
    71   1 H    0.996 --    70 C    0.982
    72   1 H    0.996 --    70 C    0.983
    73   1 H    0.997 --    70 C    0.982
    74   6 C    3.933 --    76 C    0.996    80 C    0.992    65 C    0.938
                            75 O    0.933
    75   8 O    2.241 --    63 B    1.128    74 C    0.933
    76   6 C    3.992 --    74 C    0.996    77 H    0.983    78 H    0.982
                            79 H    0.981
    77   1 H    0.996 --    76 C    0.983
    78   1 H    0.997 --    76 C    0.982
    79   1 H    0.997 --    76 C    0.981
    80   6 C    3.994 --    74 C    0.992    81 H    0.984    83 H    0.983
                            82 H    0.983
    81   1 H    0.998 --    80 C    0.984
    82   1 H    0.997 --    80 C    0.983
    83   1 H    0.996 --    80 C    0.983
    84   1 H    0.996 --     4 C    0.968
    85   1 H    0.996 --    14 C    0.968
    86   6 C    3.927 --    87 C    1.379    88 C    1.353    19 Ir   0.597
                            20 H    0.353
    87   6 C    3.987 --    89 C    1.390    86 C    1.379    90 H    0.962
    88   6 C    3.988 --    91 C    1.473    86 C    1.353    92 H    0.960
    89   6 C    3.880 --    94 N    1.417    87 C    1.390    93 F    0.925
    90   1 H    0.998 --    87 C    0.962
    91   6 C    3.973 --    88 C    1.473    94 N    1.377    95 H    0.961
    92   1 H    0.996 --    88 C    0.960
    93   9 F    1.058 --    89 C    0.925
    94   7 N    3.049 --    89 C    1.417    91 C    1.377
    95   1 H    0.994 --    91 C    0.961
 ---------------------------------------------------------------------------

Topologies differ in total number of bonds
Writing topology from bond orders to xtbtopo.mol

molecular dipole:
                 x           y           z       tot (Debye)
 q only:        1.299       0.981      -2.670
   full:        0.126       1.177      -3.317       8.953
molecular quadrupole (traceless):
                xx          xy          yy          xz          yz          zz
 q only:       23.376      -5.971       6.870      21.527      27.232     -30.245
  q+dip:       27.702      -5.206       8.403      24.046      33.584     -36.105
   full:       25.543      -4.371      10.891      21.785      30.636     -36.434


           -------------------------------------------------
          | TOTAL ENERGY             -140.939707462799 Eh   |
          | GRADIENT NORM               0.035707680531 Eh/α |
          | HOMO-LUMO GAP               0.929234673758 eV   |
           -------------------------------------------------

------------------------------------------------------------------------
 * finished run on 2022/01/14 at 15:01:04.970     
------------------------------------------------------------------------
 total:
 * wall-time:     0 d,  0 h,  0 min,  0.121 sec
 *  cpu-time:     0 d,  0 h,  0 min,  0.703 sec
 * ratio c/w:     5.822 speedup
 SCF:
 * wall-time:     0 d,  0 h,  0 min,  0.094 sec
 *  cpu-time:     0 d,  0 h,  0 min,  0.556 sec
 * ratio c/w:     5.947 speedup

