95
 energy: -140.939707462751 gnorm: 0.000191685302 xtb: 6.4.1 (1a32961)
N        -0.93296804783979   -2.04209371160628   -0.35561046275594
C        -2.18574701756613   -1.57814229072587   -0.50909695194978
C        -3.07490788211324   -2.19245243949047   -1.39991072497795
C        -2.66325079714492   -3.28120412819211   -2.13811839584104
C        -1.36154289477155   -3.74543420467579   -1.97264304494676
C        -0.54490331118008   -3.09222061341448   -1.07247141334175
H         0.47120884754550   -3.41974060486026   -0.90436741732001
H        -0.99704769018768   -4.59446522520809   -2.52740228134956
H        -4.08090213303862   -1.82464644673975   -1.51456581964731
C        -2.54965513987390   -0.41548043937684    0.29561138720971
N        -1.60654369563586    0.05628642776744    1.13712810944408
C        -1.89773996511310    1.10784211167772    1.89868439165074
C        -3.11711880497095    1.75451768225754    1.87081013781408
C        -4.09442525600202    1.29101411863901    0.99558677144710
C        -3.80330597558666    0.20028283819067    0.20388753969803
H        -4.54704817977661   -0.16858345257667   -0.48230520051957
H        -3.30062576389359    2.59742730569599    2.51697018922789
H        -1.10234147204970    1.44088286575434    2.54750105030495
Ir        0.42150000000010   -0.81649999999988    0.91330000000002
H         0.87260000000008   -2.23029999999994    1.54050000000000
B         0.40888025008290    0.59131949183464   -0.62256466396064
O        -0.21125197276379    0.28071310803393   -1.81738826442525
C        -0.28424533357815    1.44563089993375   -2.64792580959659
C        -0.00030019009507    1.06065423287703   -4.09738960346338
H         0.92426650575876    0.49774237903600   -4.16951055444170
H         0.06397246276148    1.95214050078587   -4.71578850111183
H        -0.80955979281232    0.43496594989943   -4.46607272087455
C        -1.71731810527584    1.98484684379444   -2.53649697636607
H        -1.86358580714531    2.84653480788000   -3.18076557664715
H        -2.40832661270497    1.19806135994314   -2.83275865828597
H        -1.93652612510902    2.25515397317260   -1.50535239648769
C         0.77348753375409    2.39496156598293   -1.99518289864954
O         0.85736538299269    1.89021620367427   -0.65403203198447
C         2.16782522111882    2.23123480305099   -2.61190755206295
H         2.46440317764443    1.18727756006830   -2.54523317292146
H         2.18975067752687    2.57266340441792   -3.64268583136833
H         2.87645812344061    2.81509637952880   -2.02938301976771
C         0.39116836055869    3.87326478883753   -1.97659169699144
H        -0.50235944014692    4.04316556608841   -1.38411410154154
H         1.20377315443363    4.44555505869002   -1.53577345258276
H         0.22542893512486    4.22611237762687   -2.99126513668313
B         1.57299420911059    0.63953462343581    1.86806341440147
O         2.94023981958348    0.76294472125431    1.89251452015192
C         3.30754930914062    2.04206103756898    2.43251456066742
C         4.55149462308393    1.89931112402825    3.30743187184512
H         4.41667249827617    1.12906091221252    4.05943829418417
H         5.39601589746304    1.61898279599732    2.68323307065922
H         4.77503701967696    2.84546757688725    3.79262703442935
C         3.62196870812412    2.94356474226737    1.23301271848934
H         3.89657761214082    3.94586223921747    1.54755352380726
H         4.44951523490226    2.50670421104551    0.67880693998625
H         2.75657242025335    2.96999524066334    0.57580383224210
C         2.00998620611857    2.47854772244651    3.19468809275926
O         0.99842148008587    1.66133428574010    2.58754481781608
C         1.63252994745240    3.94947639775246    3.03082095563297
H         1.41364595569748    4.17387541912581    1.99231563450259
H         0.74228484676216    4.15592841449948    3.61978989235315
H         2.43996354471377    4.58555339632138    3.38286036157918
C         2.04009279811263    2.12714205510500    4.68746525176277
H         2.26520597866028    1.07246851721758    4.81933590060513
H         2.77004398966636    2.73232918982056    5.21599818683095
H         1.05532512802989    2.31240517644727    5.11021547400977
B         2.27819999999887   -1.33090000000008    0.17410000000012
O         3.08258854290366   -2.31066450885074    0.71522525421536
C         4.37834903152527   -2.28799592365337    0.10098240869495
C         5.31393099030842   -1.58277967796739    1.08865791785642
H         4.89993530921276   -0.60812492986467    1.33069210625257
H         5.35110183682725   -2.16824997362047    2.00390266914940
H         6.31845165059650   -1.48703907985561    0.68884348872370
C         4.86114811287550   -3.72126848032613   -0.12009285194049
H         4.97703737653793   -4.20375252959907    0.84681310836084
H         5.82046249349727   -3.71819526107251   -0.62960870831710
H         4.14553922960936   -4.29610107375327   -0.69826103603451
C         4.12670216826684   -1.46024810257719   -1.20903323298874
O         2.88210538377211   -0.79532654282507   -0.93607331199490
C         5.19413990049334   -0.41223811289049   -1.51789671794693
H         6.16615645032958   -0.88449292882526   -1.62878921782921
H         4.94015286616780    0.09200069159437   -2.44675395232473
H         5.23249241009172    0.33062511503642   -0.72896073207091
C         3.90778304412518   -2.33651865771671   -2.44945251327873
H         3.11777130462003   -3.05918893882488   -2.26497874036251
H         3.59302588541955   -1.70000562684844   -3.27287299780195
H         4.82128351896071   -2.85163589478716   -2.73030309635987
H        -3.33835420074962   -3.76198897471526   -2.82945032337553
H        -5.05899102331739    1.77168970569519    0.93587362530301
C         0.23589999999983   -1.68140000000032    2.96029999999987
C        -1.05200446522174   -2.04763951441988    3.35336971257023
C         1.18340083609967   -1.53901660506297    3.98100536339624
C        -1.30962598814703   -2.14430836601029    4.70767427876710
H        -1.84705184271789   -2.24904193742903    2.65268877302062
C         0.79908038468136   -1.67797513746821    5.29965152293562
H         2.20824220796326   -1.32092250336114    3.72870299661339
F        -2.57304395580488   -2.45777119796345    5.10622506614942
N        -0.44509640108222   -1.96624331451838    5.67663167055653
H         1.49965148905151   -1.56035551823178    6.11529669432852
