13
 energy: -23.649339398963 gnorm: 0.079652623160 xtb: 6.4.1 (1a32961)
C        -1.12226000000000   -0.66713000000000    0.05774000000000
N         0.00227000000000   -1.41477000000000    0.04784000000000
C         1.16242000000000   -0.71848000000000   -0.02563000000000
Cl        2.55182000000000   -1.72846000000000   -0.02530000000000
C         1.20950000000000    0.67309000000000   -0.09340000000000
C         2.47402000000000    1.46230000000000   -0.22197000000000
N         0.06078000000000    1.41146000000000   -0.07239000000000
C        -1.09544000000000    0.71327000000000    0.00584000000000
H        -2.05725000000000   -1.21468000000000    0.10897000000000
H         3.37709000000000    0.84842000000000   -0.19942000000000
H         2.54408000000000    2.18564000000000    0.59582000000000
H         2.46776000000000    2.00911000000000   -1.17068000000000
H        -2.00583000000000    1.30169000000000    0.02243000000000
13
 energy: -23.653709828480 gnorm: 0.034453050411 xtb: 6.4.1 (1a32961)
C        -1.11244986183109   -0.66646268813476    0.05940905795031
N         0.00316356501224   -1.39193659711631    0.04796572199672
C         1.14790550714060   -0.71316219862514   -0.02941087393445
Cl        2.55333938496528   -1.70303862168176   -0.02981676854147
C         1.20475235592108    0.67758098329579   -0.10206206024456
C         2.46872449428172    1.45846293911669   -0.21996070816936
N         0.06774824963300    1.38710506984811   -0.07751567560043
C        -1.07874224970433    0.71398816393226    0.00581254320202
H        -2.03929614833760   -1.22038554691461    0.11387511959339
H         3.34630115821623    0.81489913349265   -0.19005086644985
H         2.52644090488062    2.18500009230681    0.58964341936246
H         2.46123617053840    2.00932332327820   -1.16035688408019
H        -1.98016353071614    1.31008594720208    0.02231797491541
13
 energy: -23.654496004941 gnorm: 0.007312521801 xtb: 6.4.1 (1a32961)
C        -1.11444980495205   -0.66884447360015    0.06012401678599
N         0.00337078753464   -1.37640853940773    0.04701789885283
C         1.14000487368339   -0.71286379477606   -0.03009090368206
Cl        2.55864778802891   -1.69148170388210   -0.03698882715326
C         1.20414840231878    0.68291920416531   -0.10475839080928
C         2.47061681472811    1.45768895392358   -0.21900825320972
N         0.06875861516375    1.36947155548779   -0.08040982153709
C        -1.07699923239471    0.71536034012475    0.00287623164009
H        -2.03500768444000   -1.23023405567634    0.12069260826542
H         3.33476655787304    0.80204395105472   -0.18159483568503
H         2.52073788075147    2.18689553963905    0.58554351539897
H         2.46693902664520    2.00827654310764   -1.15699111476068
H        -1.97257402494053    1.31863647983956    0.02343787589383
13
 energy: -23.654550684184 gnorm: 0.003658109527 xtb: 6.4.1 (1a32961)
C        -1.11795413284649   -0.66951565697898    0.06366560582141
N         0.00358695014274   -1.37432260839648    0.04714502832648
C         1.14014781714182   -0.71396514137627   -0.03436048500002
Cl        2.56119978343610   -1.69329586498837   -0.04123769846842
C         1.20538997186608    0.68445277805705   -0.10829526228683
C         2.47232027883827    1.45885796987596   -0.21831570989197
N         0.06776093510544    1.36754387323897   -0.08252278463029
C        -1.08021666117972    0.71564222435349    0.00449823117679
H        -2.03664465606458   -1.23374827418149    0.12473257358762
H         3.33492422802337    0.80241767857721   -0.17535926610057
H         2.51915739136156    2.18926250800990    0.58579982972293
H         2.47392363774965    2.00736412913907   -1.15787010438556
H        -1.97463554357422    1.32076638466993    0.02197004212844
13
 energy: -23.654568675703 gnorm: 0.001889663158 xtb: 6.4.1 (1a32961)
C        -1.12053525167116   -0.66971908461684    0.06380999003300
N         0.00384265277540   -1.37310196773086    0.04642121505806
C         1.14003150647966   -0.71449223205330   -0.03520554958350
Cl        2.56253425218497   -1.69603092426867   -0.04957527166278
C         1.20609628312224    0.68596318220801   -0.10789154454432
C         2.47300666854434    1.45980002066295   -0.21710344223978
N         0.06709193862495    1.36698827008803   -0.08314303597596
C        -1.08257423904333    0.71538975026961    0.00287404753464
H        -2.03707772395504   -1.23652518688140    0.13037511684304
H         3.33508647506431    0.80338686657983   -0.16638674362358
H         2.51647005565576    2.19450032966615    0.58375020570225
H         2.48058052490474    2.00286715483765   -1.16021598914312
H        -1.97559314268685    1.32243382123884    0.02214100160206
13
 energy: -23.654578166112 gnorm: 0.001463064420 xtb: 6.4.1 (1a32961)
C        -1.12126853781457   -0.66922309254521    0.06715688434700
N         0.00399752787383   -1.37283867383989    0.04572575069193
C         1.13914359185898   -0.71450862408360   -0.03966468394890
Cl        2.56266025699537   -1.69776127468890   -0.05837892904120
C         1.20575810720116    0.68678267603001   -0.10895403945434
C         2.47280682713167    1.46005780266063   -0.21540754011522
N         0.06690754259697    1.36736421766685   -0.08246510504194
C        -1.08315827012856    0.71493650392708    0.00481251958250
H        -2.03632894730166   -1.23787794399216    0.13380151065981
H         3.33517004465512    0.80440910906506   -0.15458753796247
H         2.51149644804727    2.20110672511752    0.58009507865518
H         2.48709598189993    1.99580705249152   -1.16285653832940
H        -1.97532057301552    1.32320552219110    0.02057262995707
13
 energy: -23.654591057017 gnorm: 0.002113491453 xtb: 6.4.1 (1a32961)
C        -1.12108129671411   -0.66854220333624    0.06783093121488
N         0.00404889271172   -1.37313136646562    0.04328423525483
C         1.13798117588711   -0.71392744678638   -0.04351679597651
Cl        2.56234869197545   -1.69813389783731   -0.07178543274853
C         1.20504564703738    0.68735012785914   -0.10795891427895
C         2.47239212501656    1.45977027602508   -0.21291637133974
N         0.06697792066223    1.36816453804858   -0.07991831027231
C        -1.08296474454848    0.71439802946154    0.00582706131085
H        -2.03512365806217   -1.23827254345850    0.13813089482825
H         3.33516481013517    0.80564538241457   -0.13550513312687
H         2.50307269627090    2.21258701565783    0.57200701937991
H         2.49557698050267    1.98190674848876   -1.16804699577816
H        -1.97447924087443    1.32364533992854    0.02241781153233
13
 energy: -23.654603749041 gnorm: 0.002581231349 xtb: 6.4.1 (1a32961)
C        -1.12060536229686   -0.66822006907432    0.06864033651576
N         0.00389606923171   -1.37362460472046    0.04047513863527
C         1.13726118574568   -0.71366416275227   -0.04805455661919
Cl        2.56192846412747   -1.69765045684469   -0.08261110134822
C         1.20462218926104    0.68733420988291   -0.10784177823951
C         2.47227645900201    1.45953021577240   -0.21090876689446
N         0.06713236794777    1.36861484269729   -0.07738737794562
C        -1.08255012679153    0.71428362289872    0.00756939345629
H        -2.03457690274688   -1.23787710430704    0.14147139500782
H         3.33505770394320    0.80723141162966   -0.11782782061659
H         2.49468873723414    2.22273076369274    0.56413075838236
H         2.50383742275582    1.96908261812843   -1.17277716820637
H        -1.97400820741358    1.32368871299662    0.02497154787244
13
 energy: -23.654627857941 gnorm: 0.003168504773 xtb: 6.4.1 (1a32961)
C        -1.11986745137732   -0.66795621634242    0.06979096154301
N         0.00355279093103   -1.37434577072469    0.03517261821422
C         1.13641144156633   -0.71348788524187   -0.05605683376298
Cl        2.56114180508999   -1.69673044638691   -0.10250181557497
C         1.20418141615973    0.68715925048340   -0.10769570242937
C         2.47229051933321    1.45928593413777   -0.20737935178853
N         0.06736343443386    1.36915576719373   -0.07287635459828
C        -1.08194022758487    0.71438842084298    0.01074085377991
H        -2.03404652618017   -1.23692314114799    0.14761006631944
H         3.33469703943772    0.81062011888943   -0.08514157886046
H         2.47904963343908    2.24128159255153    0.54925260313811
H         2.51967869495593    1.94539857762568   -1.18136517767877
H        -1.97355257020453    1.32361379811936    0.03029971169866
13
 energy: -23.654657104635 gnorm: 0.003776919190 xtb: 6.4.1 (1a32961)
C        -1.11909669590311   -0.66789842339647    0.07104661018399
N         0.00302955754099   -1.37505700672367    0.02779429082276
C         1.13570293893409   -0.71354172939182   -0.06633373464405
Cl        2.56000792233640   -1.69556383695224   -0.12802853436446
C         1.20389486136192    0.68685751888934   -0.10724878216584
C         2.47239333196393    1.45914284402719   -0.20295119750737
N         0.06764884558255    1.36962189829086   -0.06649743530845
C        -1.08128212168511    0.71478613150616    0.01544173288402
H        -2.03376241058195   -1.23561122235127    0.15434884349133
H         3.33382490897926    0.81631868176346   -0.04198499419204
H         2.45879826823901    2.26571468107653    0.52818374898709
H         2.54107755811817    1.91326994010616   -1.19233660253699
H        -1.97327696488617    1.32342052315578    0.03841605434999
13
 energy: -23.654696827114 gnorm: 0.004159007822 xtb: 6.4.1 (1a32961)
C        -1.11839002232648   -0.66809012007383    0.07159130451253
N         0.00245351033892   -1.37554894220771    0.01987399164610
C         1.13536393518110   -0.71363849177668   -0.07570754680560
Cl        2.55876166490134   -1.69387077603494   -0.15285614301563
C         1.20376831336063    0.68650201383098   -0.10629632399360
C         2.47243835655236    1.45906128360491   -0.19903132471395
N         0.06794838545719    1.36998532014746   -0.05865642169191
C        -1.08064863276221    0.71544279668303    0.02151047986635
H        -2.03382476800523   -1.23425937447322    0.15785163526152
H         3.33188813958426    0.82401746570750    0.00210411666309
H         2.43888632185589    2.29032437149148    0.50373269375609
H         2.56355812583364    1.87846145597057   -1.20300733427808
H        -1.97324332997139    1.32307299713043    0.04874087279308
13
 energy: -23.654184791271 gnorm: 0.023963119838 xtb: 6.4.1 (1a32961)
C        -1.11603645945639   -0.66924018376790    0.07175616459266
N         0.00000807264850   -1.37715109462185   -0.01482474675003
C         1.13427863964251   -0.71392597947088   -0.11299590657075
Cl        2.55382235950439   -1.68591315668375   -0.25382447660299
C         1.20342725058966    0.68547310471878   -0.09949877170073
C         2.47274353398187    1.45853922653102   -0.18316658747496
N         0.06911146160103    1.37148971847333   -0.02214751176234
C        -1.07840556982717    0.71831226441474    0.04934423786515
H        -2.03468187791971   -1.22950971518217    0.16522229938692
H         3.32164527814167    0.85857182447621    0.18599976903284
H         2.35907435197960    2.39515763607342    0.39424166439370
H         2.65742102788554    1.72801201563218   -1.24606830522158
H        -1.97344806877151    1.32164433940685    0.09581217081208
13
 energy: -23.654790642644 gnorm: 0.005919446238 xtb: 6.4.1 (1a32961)
C        -1.11644927036898   -0.66941335408543    0.06971896169740
N         0.00092442778583   -1.37626104092857    0.00452453808557
C         1.13597690571588   -0.71385245424063   -0.08920178851919
Cl        2.55576680754864   -1.68726387571008   -0.19196680372619
C         1.20401895021906    0.68496634411299   -0.10152024851153
C         2.47237025436156    1.45847717926960   -0.19391818299209
N         0.06873926721987    1.37020252537891   -0.03940683259886
C        -1.07887400174878    0.71758249135250    0.03536960997996
H        -2.03539709113032   -1.23031814153698    0.15380426363265
H         3.32428532667025    0.84566114123712    0.07842290524361
H         2.40763436213250    2.33056909654535    0.44882902611714
H         2.60397680219066    1.81013223596540   -1.21708189006827
H        -1.97401274059617    1.32097785263980    0.07227644165979
13
 energy: -23.654828176349 gnorm: 0.003854721461 xtb: 6.4.1 (1a32961)
C        -1.11803596985573   -0.66918032919690    0.07005711834820
N         0.00132982746569   -1.37532897325506    0.00221101764490
C         1.13578035026608   -0.71360213767372   -0.09153190157667
Cl        2.55699177883233   -1.68807880357077   -0.19672902610049
C         1.20399396314249    0.68653263254845   -0.10274898805115
C         2.47286850418590    1.45897953192566   -0.19361876944625
N         0.06822326262829    1.37039861499302   -0.03960235127346
C        -1.08021884357138    0.71723258490037    0.03704131516225
H        -2.03536133664517   -1.23265591321625    0.15452425382951
H         3.32340783265993    0.84547716221777    0.08943118033841
H         2.40353679059521    2.33653057321643    0.44386358661488
H         2.61061426822060    1.80300947738391   -1.21974533075236
H        -1.97417042792426    1.32214557972707    0.07669789526222
13
 energy: -23.654886013035 gnorm: 0.004504109334 xtb: 6.4.1 (1a32961)
C        -1.12013638857318   -0.66913384952696    0.06836651688891
N         0.00147445340945   -1.37409342752637   -0.00759452965836
C         1.13545145216327   -0.71329133321134   -0.09857184507708
Cl        2.55788120068489   -1.68777202256113   -0.21136437515520
C         1.20375521330727    0.68886432589644   -0.10250914416607
C         2.47330489056450    1.45987426196852   -0.19237685864527
N         0.06770516623202    1.37105264746264   -0.03162650795424
C        -1.08175709992491    0.71710229832375    0.04627044671357
H        -2.03556288638415   -1.23590267243527    0.14864420289149
H         3.31826128807896    0.85295943263883    0.12802377627670
H         2.38952999704579    2.35922095746450    0.41675021017295
H         2.63322660103646    1.76901199189535   -1.22861868440241
H        -1.97417388764038    1.32356738961101    0.09445679211499
13
 energy: -23.654930851973 gnorm: 0.006874095257 xtb: 6.4.1 (1a32961)
C        -1.12150421795783   -0.66916613326621    0.06498385588161
N         0.00123375809984   -1.37313978941922   -0.01930261504583
C         1.13511643948756   -0.71271701907222   -0.10610077481340
Cl        2.55830795575556   -1.68556677674705   -0.22545358042461
C         1.20316893072308    0.69072698616654   -0.10139945847223
C         2.47336131086185    1.46026714194385   -0.19182992415810
N         0.06738028853289    1.37186075294846   -0.01984802076734
C        -1.08260509846512    0.71717477773131    0.05761197935700
H        -2.03602738359674   -1.23804116540856    0.13839201553859
H         3.31180632536257    0.86480563220365    0.17144412530246
H         2.37431390147387    2.38317563856682    0.38202172750480
H         2.65840901513520    1.72786376671486   -1.23749296388278
H        -1.97400122541273    1.32421618763775    0.11682363397981
13
 energy: -23.655003829902 gnorm: 0.005977446646 xtb: 6.4.1 (1a32961)
C        -1.12224211567707   -0.66907045794317    0.06070725000089
N         0.00085738087382   -1.37248089861206   -0.02843577515586
C         1.13480568120592   -0.71199161020675   -0.11006965973618
Cl        2.55876190813649   -1.68287441132717   -0.23043770342396
C         1.20243723789313    0.69201919021906   -0.09979317794835
C         2.47310191846632    1.46025444914456   -0.19268020604307
N         0.06729015094085    1.37253222920734   -0.00923313563870
C        -1.08284236935719    0.71710920189454    0.06691356335525
H        -2.03657330519773   -1.23917853611825    0.12571486390638
H         3.30558387834673    0.87623981647126    0.19907712330809
H         2.36612547013513    2.39781828622357    0.35363428270706
H         2.67514856876669    1.69689089740087   -1.24147293566771
H        -1.97349440453310    1.32419184364618    0.13592551033614
13
 energy: -23.655112090212 gnorm: 0.002522129869 xtb: 6.4.1 (1a32961)
C        -1.12236610756426   -0.66854490339372    0.05384413023053
N         0.00013724282629   -1.37179615378481   -0.04171685861109
C         1.13380944841307   -0.71005083345329   -0.11514374640562
Cl        2.55963643563004   -1.67695066459820   -0.23645770247191
C         1.20069783017031    0.69373522750559   -0.09616851219723
C         2.47218844338072    1.45968354668510   -0.19424255211965
N         0.06718891167118    1.37366386949274    0.00757455267723
C        -1.08252548070803    0.71670580312691    0.08002651780087
H        -2.03715100395507   -1.23930945566355    0.10608942144999
H         3.29480244665882    0.89576102821474    0.23703134027141
H         2.35647202157172    2.41564208820706    0.30955764477239
H         2.69849171906416    1.65006726103189   -1.24381604310209
H        -1.97242190715898    1.32285318662952    0.16327180770513
13
 energy: -23.655038307178 gnorm: 0.013387964220 xtb: 6.4.1 (1a32961)
C        -1.12272441654706   -0.66768092654740    0.04321445265308
N        -0.00125072994067   -1.37064581730065   -0.07087959505779
C         1.13154277722883   -0.70656694259042   -0.13218806763492
Cl        2.56076785436587   -1.66580411410584   -0.26966240770881
C         1.19777732613534    0.69700003707944   -0.08984135567818
C         2.47107232673448    1.45869163417084   -0.19310833931584
N         0.06700916197943    1.37583061161710    0.04054800345246
C        -1.08218719020712    0.71632038525222    0.10695845582381
H        -2.03804482273196   -1.23925615251539    0.07925549452530
H         3.27414436470131    0.93550157941526    0.33925361797026
H         2.32369618645700    2.46586135330243    0.21385131891897
H         2.75804281174540    1.54150298758304   -1.25402823136679
H        -1.97088564992087    1.32070536463934    0.21647665341843
13
 energy: -23.655201969448 gnorm: 0.001301562431 xtb: 6.4.1 (1a32961)
C        -1.12191474040033   -0.66762775206393    0.04804640557549
N        -0.00069257058171   -1.37140565760590   -0.05657409371490
C         1.13205398878946   -0.70766897885824   -0.12420009413189
Cl        2.56044221372599   -1.67015528145920   -0.25466347769320
C         1.19898932418204    0.69506609892269   -0.09270632920989
C         2.47160441352274    1.45848861344439   -0.19346336363948
N         0.06732413074356    1.37467560999372    0.02403489045777
C        -1.08180463284534    0.71623698887331    0.09334633582749
H        -2.03743138587721   -1.23758010071958    0.09509882486437
H         3.28293439355430    0.91994719098540    0.28873911955822
H         2.34024987719275    2.43796617538992    0.25743453575986
H         2.72852308133977    1.59276505982521   -1.24338144371076
H        -1.97131809334604    1.32075203327219    0.18813869005688
13
 energy: -23.655265410335 gnorm: 0.001754802061 xtb: 6.4.1 (1a32961)
C        -1.12171940289483   -0.66711547009142    0.04583825761452
N        -0.00106583702797   -1.37099543470901   -0.06636775562252
C         1.13066143322610   -0.70575920072072   -0.13204406265422
Cl        2.56109197307338   -1.66513831896614   -0.27230401536635
C         1.19777467076696    0.69637119951673   -0.09066269741374
C         2.47114768368005    1.45821549037458   -0.19183832348043
N         0.06708820104455    1.37553930866066    0.03414956209783
C        -1.08165607830534    0.71582194239606    0.10136510169968
H        -2.03745087064276   -1.23690408701217    0.09142691122037
H         3.27247773260499    0.93800102897550    0.32850758121871
H         2.32834641584250    2.45351805653528    0.21968987421564
H         2.75333245864124    1.55060387494828   -1.24148404788688
H        -1.97106838000890    1.31930161009234    0.20357361435736
13
 energy: -23.655296563654 gnorm: 0.000723093644 xtb: 6.4.1 (1a32961)
C        -1.12152669614670   -0.66763676846006    0.05024711408167
N        -0.00108552505007   -1.37122492476783   -0.06643002079921
C         1.13028168216070   -0.70578367714271   -0.13591744400661
Cl        2.55936393314381   -1.66484338528339   -0.29004666113231
C         1.19775638668305    0.69635388475919   -0.09423858598171
C         2.47150480226863    1.45837383302724   -0.18902599884574
N         0.06669832557793    1.37587832239434    0.02904420081546
C        -1.08178640410074    0.71604701474888    0.10077350750784
H        -2.03675771619611   -1.23791727820232    0.10134579017276
H         3.26565688604008    0.94422370617505    0.34518489728797
H         2.32425811563335    2.45689231353383    0.21049563356945
H         2.76595871172185    1.54123072728137   -1.23451137491385
H        -1.97136250173578    1.31986623193636    0.20292894224426
13
 energy: -23.655335686509 gnorm: 0.000931623282 xtb: 6.4.1 (1a32961)
C        -1.12119309158059   -0.66800963745489    0.05528598434117
N        -0.00121944550460   -1.37086399138231   -0.06998131515973
C         1.12946313383873   -0.70477533321507   -0.14465808122729
Cl        2.55811379595666   -1.66176258108803   -0.31332590601987
C         1.19747886211578    0.69678551445498   -0.09531514631080
C         2.47198144553995    1.45810259038931   -0.18569972040246
N         0.06615858305176    1.37631923490703    0.02908029783142
C        -1.08194232338257    0.71619497005750    0.10238741463067
H        -2.03573413465618   -1.23887002838776    0.11212946278602
H         3.25653003990212    0.95442650336000    0.37189576984401
H         2.31690970763811    2.46383249553942    0.19222317947203
H         2.78430349708396    1.52008149571972   -1.22717773234041
H        -1.97189007000316    1.31999876710009    0.20300579255521
13
 energy: -23.655384838951 gnorm: 0.001868078690 xtb: 6.4.1 (1a32961)
C        -1.12086153351611   -0.66821654989764    0.05949028518056
N        -0.00162428864726   -1.37016880764175   -0.07640812518105
C         1.12779044639973   -0.70270945987233   -0.15852035576868
Cl        2.55659432821895   -1.65491229311766   -0.35099584868237
C         1.19586713020833    0.69816964207545   -0.09882125162213
C         2.47221141674869    1.45745497554892   -0.18071333018164
N         0.06480924137201    1.37714652237984    0.03115961415369
C        -1.08251066980912    0.71603862009359    0.10503717208442
H        -2.03395838948419   -1.23995256855450    0.12996586071738
H         3.24113564930248    0.97278165447027    0.41791356966982
H         2.30554547613594    2.47560240108582    0.16032409287199
H         2.81676479304491    1.48134200152914   -1.21553381317526
H        -1.97280359997438    1.31888386190081    0.20695212993323
13
 energy: -23.655408930806 gnorm: 0.004019854078 xtb: 6.4.1 (1a32961)
C        -1.12015865615615   -0.66837639553608    0.06558018207846
N        -0.00196704180160   -1.36950111483398   -0.08415515134495
C         1.12559471364083   -0.70023754787788   -0.17629749451534
Cl        2.55536178720287   -1.64651803531314   -0.38778710547784
C         1.19353788834110    0.70005960604467   -0.10251146299498
C         2.47184876015825    1.45645578888981   -0.17607110466307
N         0.06341398444264    1.37808598866577    0.03597914429573
C        -1.08313556983889    0.71549944634088    0.11035158211610
H        -2.03201037643430   -1.24061034652114    0.14495737997150
H         3.22322158437515    0.99418529821514    0.46533064307338
H         2.29605445566811    2.48706710917417    0.12351886872090
H         2.85127492166579    1.43836847712682   -1.20091751853722
H        -1.97407645126383    1.31698172562492    0.21187203727731
13
 energy: -23.655426015046 gnorm: 0.002745270167 xtb: 6.4.1 (1a32961)
C        -1.12001478539675   -0.66822401133225    0.06433846623026
N        -0.00188599590827   -1.36931524765971   -0.08574067803820
C         1.12542271337372   -0.69981566950738   -0.17710133861919
Cl        2.55521876973650   -1.64500645942220   -0.39185362136886
C         1.19326121615953    0.70046602398153   -0.10110974703454
C         2.47166975868288    1.45619231802315   -0.17591637837750
N         0.06342547386411    1.37823688790538    0.03858063341236
C        -1.08322964841851    0.71536895257214    0.11102215276301
H        -2.03163902182543   -1.24057443331312    0.14486350235670
H         3.22016760154268    0.99853801515168    0.47029475885187
H         2.29618289026751    2.48813879869988    0.11629903534960
H         2.85455906709715    1.43100331089699   -1.19792175800940
H        -1.97417803917514    1.31645151400389    0.21409497248386
13
 energy: -23.655461023546 gnorm: 0.001255008933 xtb: 6.4.1 (1a32961)
C        -1.11960940669580   -0.66804529501592    0.06285701105991
N        -0.00171798565101   -1.36886355316522   -0.09248752599337
C         1.12486613575800   -0.69861443198385   -0.18203053303108
Cl        2.55418192776636   -1.64063398676829   -0.40970681185841
C         1.19245974710735    0.70181337494340   -0.09964685395809
C         2.47161036933493    1.45572834743632   -0.17516038370067
N         0.06352406983072    1.37886294072950    0.04590162448673
C        -1.08326150307417    0.71497037175372    0.11759057826175
H        -2.03097797867505   -1.24074929677406    0.14158255865414
H         3.20705934923007    1.01732646835348    0.49686442466128
H         2.29282138359295    2.49493526479280    0.08470400852132
H         2.87221173236787    1.39959066019070   -1.18694903728298
H        -1.97420784089222    1.31513913550738    0.22633094017944
13
 energy: -23.655448160293 gnorm: 0.007592489248 xtb: 6.4.1 (1a32961)
C        -1.11937126609382   -0.66798389150262    0.05945858347481
N        -0.00242275377631   -1.36744268327359   -0.11658929995161
C         1.12267058083365   -0.69536347064542   -0.20288040371791
Cl        2.55108517518174   -1.62960837666547   -0.45790366899165
C         1.19015922867656    0.70505969807084   -0.10061087863262
C         2.47179102245929    1.45507776371568   -0.17340663760119
N         0.06346970797710    1.38009620284316    0.06478922368194
C        -1.08310195353125    0.71370861063844    0.13881511686468
H        -2.03037763718013   -1.24203313902576    0.13433230800962
H         3.16749990255193    1.07485017340393    0.58103898308102
H         2.27887072845147    2.51593646907990   -0.00956824732262
H         2.93187792912926    1.30736687807502   -1.15597543471061
H        -1.97319066467951    1.31179576528585    0.26835035581612
13
 energy: -23.655518184698 gnorm: 0.001903656465 xtb: 6.4.1 (1a32961)
C        -1.12017604682441   -0.66806601340291    0.05737050132331
N        -0.00292427246850   -1.36779335478617   -0.11522739254105
C         1.12344636373444   -0.69685130788199   -0.19781103827460
Cl        2.55189836871294   -1.63492622947016   -0.43261096948686
C         1.19118310183245    0.70381866060394   -0.10246524881176
C         2.47207472045741    1.45587878080154   -0.17704157092759
N         0.06432045817215    1.37917603327917    0.06287911510766
C        -1.08237682018886    0.71365872421936    0.14039280181210
H        -2.03251297136250   -1.24162502339985    0.12215289485269
H         3.17551546223174    1.06762204538889    0.55737694084836
H         2.28323786070144    2.50885484396874    0.00637099165860
H         2.91700817081914    1.32896191335517   -1.16237481669600
H        -1.97173439581746    1.31275092732422    0.27083779113511
13
 energy: -23.655531379411 gnorm: 0.001182378322 xtb: 6.4.1 (1a32961)
C        -1.12086382700387   -0.66774122352490    0.05289049493978
N        -0.00414646804655   -1.36704186762974   -0.12181731471212
C         1.12336366696551   -0.69684471273330   -0.19897347033356
Cl        2.55181742405534   -1.63557499295739   -0.43503635523164
C         1.19154438572735    0.70322160179461   -0.10012627335386
C         2.47173440253565    1.45611966977242   -0.17812636520246
N         0.06508669649646    1.37832470677895    0.06977892314495
C        -1.08144451749774    0.71326002612682    0.14508403411679
H        -2.03357294565556   -1.24110051374111    0.11532078469677
H         3.16946561196700    1.08146934081683    0.56819148130428
H         2.27980435037337    2.51176934596278   -0.01315762563766
H         2.92572177294073    1.31337884815575   -1.15721390992512
H        -1.96955055285770    1.31221977117823    0.28303559619382
13
 energy: -23.655535839564 gnorm: 0.002656579275 xtb: 6.4.1 (1a32961)
C        -1.12194392769717   -0.66709172286807    0.04542502006046
N        -0.00656860500163   -1.36525505283686   -0.13889823530428
C         1.12247628812865   -0.69603094701888   -0.20792275807241
Cl        2.55147852485087   -1.63517440549558   -0.44440995676797
C         1.19186264690652    0.70248353368716   -0.09870580790500
C         2.47123438756955    1.45614478489462   -0.18076509844122
N         0.06688286628543    1.37679846642605    0.08760731857852
C        -1.07939413034194    0.71234408761687    0.16195480169531
H        -2.03569019846189   -1.23975497054803    0.09730659327440
H         3.15099473795404    1.12031326285235    0.60330223375595
H         2.27061128483389    2.51855848097144   -0.06803837992102
H         2.95250770177068    1.26750031182017   -1.14097650272437
H        -1.96549157679702    1.31062417049872    0.31397077177159
13
 energy: -23.655543334698 gnorm: 0.000670806628 xtb: 6.4.1 (1a32961)
C        -1.12178597494343   -0.66714590282477    0.04660250781372
N        -0.00619656812367   -1.36552217792685   -0.13477956185511
C         1.12270703474583   -0.69628751112854   -0.20509528166221
Cl        2.55181278650848   -1.63615942231417   -0.44004591299919
C         1.19208504445294    0.70228976432307   -0.09847068186408
C         2.47125806235031    1.45622317103336   -0.18049914901652
N         0.06674145448786    1.37683674488431    0.08426141968926
C        -1.07965837182212    0.71257503361606    0.15798858304958
H        -2.03548635672391   -1.23960811721217    0.09989462819573
H         3.15612635442601    1.11155693617879    0.59255991055132