10
 energy: -21.921405942092 gnorm: 0.059877267260 xtb: 6.4.1 (1a32961)
S         1.29959000000000   -0.89054000000000    0.00479000000000
C        -0.38069000000000   -1.22227000000000    0.00579000000000
C        -0.91433000000000   -2.54709000000000    0.01047000000000
N        -1.36033000000000   -3.61823000000000    0.01478000000000
C        -1.12960000000000   -0.06032000000000    0.00210000000000
C        -0.30967000000000    1.11039000000000   -0.00040000000000
C         1.02200000000000    0.78030000000000    0.00124000000000
Br        2.40265000000000    2.04585000000000    0.00008000000000
H        -2.21431000000000   -0.04375000000000    0.00179000000000
H        -0.68706000000000    2.12617000000000   -0.00284000000000
10
 energy: -21.924126827763 gnorm: 0.027797717086 xtb: 6.4.1 (1a32961)
S         1.30855707702218   -0.90245056126681    0.00591028799786
C        -0.38617389781518   -1.21633043763319    0.00580938076604
C        -0.90572536696214   -2.52316122459257    0.01013982109277
N        -1.34206217491944   -3.58189391564084    0.01414051816026
C        -1.13160557427191   -0.05843179832529    0.00241326196252
C        -0.32576015105651    1.09714390568096   -0.00018344766014
C         1.00634729249601    0.77908087981266    0.00114413379060
Br        2.41658241616853    2.02471172690282   -0.00055210004505
H        -2.20754591456898   -0.04187416964545    0.00188619840726
H        -0.70436370609256    2.10371559470770   -0.00290805447212
10
 energy: -21.924545625022 gnorm: 0.008318931432 xtb: 6.4.1 (1a32961)
S         1.31184685808914   -0.90763855697356    0.00664058592691
C        -0.39325590786804   -1.21453047952682    0.00631817720571
C        -0.90158331218227   -2.51457280529510    0.01029527583021
N        -1.33365225249425   -3.57853953137765    0.01316542799305
C        -1.13266956673840   -0.05535430815173    0.00261594894244
C        -0.33260937908073    1.09422769966062   -0.00006160646869
C         0.99910492435740    0.78384340338038    0.00138886113996
Br        2.42761171092065    2.01530008632243   -0.00134848305431
H        -2.20560169804720   -0.04018268842080    0.00187628110816
H        -0.71094137695630    2.09795718038223   -0.00309046862346
10
 energy: -21.924616544336 gnorm: 0.003963697385 xtb: 6.4.1 (1a32961)
S         1.31107138281916   -0.90943540423078    0.00667057613884
C        -0.39890690999840   -1.21569581447643    0.00642218282181
C        -0.90142037112879   -2.51673865014118    0.00870635435885
N        -1.32878927847340   -3.58312587341025    0.01426620044021
C        -1.13374149758136   -0.05362073066515    0.00279411113448
C        -0.33251823016610    1.09610538056377    0.00012963121730
C         0.99861948148036    0.78752262064495    0.00177762776208
Br        2.43136075424840    2.01365745749666   -0.00153248871597
H        -2.20736544699893   -0.03899633369574    0.00172684466139
H        -0.71005988420094    2.10083734791415   -0.00316103981897
10
 energy: -21.924617945683 gnorm: 0.003059529079 xtb: 6.4.1 (1a32961)
S         1.30959815782310   -0.91124331039441    0.00699720489161
C        -0.40485978361413   -1.21626794758533    0.00766211030553
C        -0.90135624164380   -2.52019602914556    0.01994862607955
N        -1.32334502004460   -3.58897515882388    0.00452907064782
C        -1.13498411991513   -0.05165448804487    0.00235235935046
C        -0.33119141821929    1.09836091222948   -0.00109170674415
C         0.99921307082994    0.79036750348467    0.00045911984788
Br        2.43294045284566    2.01238441961785   -0.00179071631062
H        -2.20960384196773   -0.03653259705613    0.00283002842741
H        -0.70816125609401    2.10426669571819   -0.00409609649550
10
 energy: -21.924624139326 gnorm: 0.003254648764 xtb: 6.4.1 (1a32961)
S         1.30787307180905   -0.91282949634896    0.00665316775540
C        -0.40961826577208   -1.21610636708650    0.00579342916312
C        -0.90215455491491   -2.52277493250345    0.00380137159371
N        -1.31733068704170   -3.59402654284316    0.01856225762760
C        -1.13616095998816   -0.04988666035568    0.00293597072810
C        -0.32970843969100    1.10007167014871    0.00058110930466
C         1.00006241889106    0.79163300167748    0.00215883910371
Br        2.43309701926769    2.01111873640016   -0.00126025867820
H        -2.21151257763036   -0.03350204281458    0.00142133946832
H        -0.70629702492960    2.10681263372599   -0.00284722606643
10
 energy: -21.924644829729 gnorm: 0.000483350358 xtb: 6.4.1 (1a32961)
S         1.30872788406838   -0.91170702294650    0.00659936282139
C        -0.40555235617788   -1.21536946011233    0.00644473174244
C        -0.90170069803359   -2.52004860079984    0.00946187819831
N        -1.32062684246052   -3.58964340219495    0.01374290051058
C        -1.13547145414415   -0.05119757804446    0.00270104817001
C        -0.33076399787351    1.09828612551273    0.00002780533236
C         0.99954856379920    0.78925303257880    0.00167967359307
Br        2.43191372277262    2.01151221669858   -0.00143551161222
H        -2.20995966416753   -0.03459041633350    0.00181002416035
H        -0.70786515778300    2.10401510564147   -0.00323191291630
10
 energy: -21.924646079965 gnorm: 0.000537405701 xtb: 6.4.1 (1a32961)
S         1.30784597707273   -0.91225997236560    0.00667613729192
C        -0.40712281936913   -1.21506452165341    0.00650161292497
C        -0.90169772473501   -2.52048365147254    0.01049703323526
N        -1.31786372435587   -3.59132264912483    0.01286910047949
C        -1.13608023233310   -0.05050317648193    0.00266508805799
C        -0.33054496624937    1.09870990210735   -0.00010423419523
C         0.99958339981792    0.78926220983034    0.00148149347158
Br        2.43224346459278    2.01052943105451   -0.00141596631317
H        -2.21063683723693   -0.03294117228818    0.00193235182317
H        -0.70747653720403    2.10458360039429   -0.00330261677597
10
 energy: -21.924647036972 gnorm: 0.000398909595 xtb: 6.4.1 (1a32961)
S         1.30679039511013   -0.91272477809462    0.00661570165852
C        -0.40828604372622   -1.21459241150117    0.00650838961976
C        -0.90180554679210   -2.52044342476555    0.01019900150602
N        -1.31472360257822   -3.59251680132585    0.01313732666586
C        -1.13673638983501   -0.04988769911965    0.00267443572515
C        -0.33052190751578    1.09889036178200   -0.00005476584529
C         0.99947660836392    0.78870936374768    0.00156747627201
Br        2.43252549553558    2.00934573478474   -0.00142036886187
H        -2.21121779355849   -0.03106094025692    0.00185818066937
H        -0.70725121500382    2.10479059474934   -0.00328537740954
