118
 energy: -179.826956707806 gnorm: 0.082215634676 xtb: 6.4.1 (1a32961)
N        -0.96510000000001   -2.11529999999982   -0.24090000000012
C        -2.24700000000011   -1.69840000000012   -0.36219999999995
C        -3.14039999999995   -2.36820000000039   -1.21199999999995
C        -2.70220000000002   -3.47560000000053   -1.93049999999992
C        -1.37780000000014   -3.89880000000039   -1.78760000000018
C        -0.54289999999998   -3.18669999999970   -0.93510000000007
H         0.49809999999998   -3.45629999999991   -0.78939999999995
H        -0.99570000000012   -4.76029999999991   -2.32769999999979
H        -4.16500000000008   -2.02889999999998   -1.31829999999996
C        -2.62130000000003   -0.50949999999967    0.44099999999996
N        -1.62599999999995    0.07330000000003    1.16019999999991
C        -1.89680000000003    1.15240000000002    1.91690000000011
C        -3.17230000000012    1.70330000000014    1.99649999999988
C        -4.20510000000019    1.11740000000015    1.26269999999977
C        -3.92609999999997    0.00249999999961    0.47820000000012
H        -4.71959999999992   -0.46419999999996   -0.09519999999991
H        -3.34629999999999    2.57509999999977    2.62069999999997
H        -1.04449999999999    1.57420000000001    2.43690000000003
Ir        0.42150000000001   -0.81650000000005    0.91329999999999
H         0.87259999999999   -2.23030000000001    1.54050000000001
B         0.50670000000004    0.41559999999999   -0.81540000000007
O         0.19499999999999   -0.04700000000014   -2.09149999999991
C         0.00649999999998    1.10040000000030   -2.95429999999981
C         0.49019999999991    0.74740000000043   -4.35780000000037
H         1.51609999999999    0.37380000000001   -4.33700000000001
H         0.44729999999998    1.62239999999982   -5.01669999999989
H        -0.14739999999997   -0.03389999999998   -4.78430000000006
C        -1.50119999999988    1.39560000000076   -2.96670000000031
H        -1.75370000000009    2.21460000000008   -3.64850000000006
H        -2.03200000000003    0.49450000000054   -3.28929999999998
H        -1.85169999999996    1.65209999999972   -1.96219999999961
C         0.84229999999988    2.20670000000025   -2.22039999999981
O         0.75199999999992    1.78259999999989   -0.83690000000017
C         2.32929999999998    2.18620000000014   -2.59899999999995
H         2.74129999999989    1.18499999999992   -2.45750000000004
H         2.48869999999999    2.51299999999997   -3.63180000000001
H         2.87200000000000    2.86270000000007   -1.93200000000001
C         0.28440000000005    3.62289999999985   -2.33660000000069
H        -0.72650000000006    3.69039999999998   -1.92910000000011
H         0.92129999999999    4.31479999999994   -1.77610000000019
H         0.26429999999994    3.94810000000024   -3.38319999999971
B         1.56300000000007    0.60960000000002    1.84839999999997
O         2.92780000000012    0.55230000000002    2.15020000000001
C         3.36329999999992    1.88659999999989    2.50260000000005
C         4.53140000000003    1.78589999999972    3.47739999999993
H         4.27909999999999    1.16090000000022    4.33689999999987
H         5.39390000000000    1.33790000000003    2.97340000000007
H         4.82389999999995    2.77870000000040    3.83819999999998
C         3.79700000000014    2.56850000000006    1.19669999999975
H         4.20020000000000    3.57089999999992    1.37680000000000
H         4.56739999999995    1.95560000000004    0.72109999999989
H         2.95240000000009    2.63259999999999    0.50539999999972
C         2.05039999999970    2.50090000000011    3.09320000000022
O         1.03750000000021    1.81620000000017    2.31910000000008
C         1.89099999999993    4.00450000000009    2.88650000000045
H         1.87290000000004    4.25440000000006    1.82409999999953
H         0.94940000000013    4.34260000000005    3.33170000000004
H         2.71080000000006    4.55149999999986    3.36629999999999
C         1.82469999999997    2.13200000000020    4.56519999999969
H         1.92610000000002    1.05330000000004    4.71320000000004
H         2.52610000000021    2.65279999999984    5.22540000000015
H         0.80630000000001    2.41580000000007    4.84899999999999
B         2.27819999999998   -1.33090000000004    0.17410000000000
O         2.89460000000011   -2.57739999999998    0.38450000000002
C         4.26930000000008   -2.48199999999988   -0.07209999999991
C         5.10899999999995   -2.05380000000008    1.14009999999990
H         4.76349999999998   -1.08739999999994    1.51749999999999
H         4.98050000000001   -2.79469999999990    1.93589999999988
H         6.17420000000000   -1.99289999999999    0.89299999999997
C         4.71949999999972   -3.84659999999994   -0.58470000000023
H         4.75280000000001   -4.56130000000011    0.24420000000044
H         5.72330000000009   -3.78369999999998   -1.02010000000009
H         4.03499999999986   -4.23600000000006   -1.34170000000000
C         4.16440000000002   -1.36220000000016   -1.16300000000006
O         3.08520000000011   -0.55030000000025   -0.65399999999993
C         5.40719999999994   -0.48870000000006   -1.31550000000009
H         6.27320000000008   -1.09009999999995   -1.61530000000002
H         5.23300000000000    0.26930000000003   -2.08590000000006
H         5.64269999999995    0.02649999999992   -0.38240000000002
C         3.71800000000006   -1.89829999999952   -2.53110000000002
H         2.82530000000001   -2.52160000000009   -2.42739999999998
H         3.46089999999998   -1.05249999999998   -3.17550000000005
H         4.50570000000008   -2.48290000000016   -3.01790000000002
H        -3.38500000000008   -4.00130000000035   -2.59309999999993
H        -5.21400000000005    1.52079999999999    1.29960000000000
C         0.23590000000003   -1.68140000000004    2.96030000000006
C        -1.00760445539805   -2.03670063936000    3.48684209919698
C         1.31368828721707   -1.72387080916712    3.83355798601797
C        -1.16691290593519   -2.38187750110416    4.81871086155802
H        -1.88515039876208   -2.05809615885638    2.85405616352789
C         1.20440658519201   -2.10905224139725    5.17708841086087
H         2.30051627184222   -1.49154543629342    3.45722106397697
C        -0.06862778663003   -2.46778146464016    5.69601760622601
H        -2.15800704419575   -2.63664217080093    5.15961663707987
C         2.36671916463693   -2.19843050293946    5.98056263311469
N        -0.17564441333138   -2.93586709796256    6.99020350380339
C         2.31849277186093   -2.71024822386821    7.24262987769358
H         3.29684214417063   -1.86829267172419    5.53351960827295
B         0.99292839757099   -3.16163228869268    7.79965751848459
C        -1.51532894669924   -3.19588153789202    7.50767350001659
H         3.24521469788856   -2.78774483317854    7.79579682384454
C         0.94807064898885   -3.96010225117572    9.17532998804344
H        -1.44074401006910   -3.45925807418896    8.56360398237171
H        -1.99479098015743   -4.02324212844812    6.96574322486899
H        -2.13955464912339   -2.29697081921352    7.41154358067838
C         1.58772418122359   -3.46887666468058   10.31923689012608
C         0.41679793404742   -5.25398017386510    9.23826314022449
C         1.69772321622507   -4.22516192263464   11.47603315762158
H         2.01207839821271   -2.47571455339003   10.30024276500824
C         0.52029605883461   -6.02986512322294   10.38127829241118
H        -0.06879271158253   -5.67069144556431    8.36896377966666
C         1.16946329898075   -5.51473603535922   11.50047348525922
H         2.20171153958464   -3.83388967381001   12.34796415606977
H         0.11501532935418   -7.03153921446659   10.40936054715089
C         1.27778236359905   -6.35020364653736   12.73810691462983
F         2.32252450050561   -6.01071551201126   13.53884084785268
F         0.17408013080235   -6.26702572617462   13.53747973081150
F         1.42821192214004   -7.67793600098613   12.48287823783357
118
 energy: -179.834109596286 gnorm: 0.048880870452 xtb: 6.4.1 (1a32961)
N        -0.96256812121554   -2.10029863119832   -0.25059767241302
C        -2.24096777101062   -1.69029642133791   -0.36431448482725
C        -3.13551749484926   -2.36239887190247   -1.20627781026623
C        -2.70486640503015   -3.46389936898044   -1.92162926936558
C        -1.38467823893668   -3.88271614856239   -1.78184811536257
C        -0.55490138203783   -3.16823384252486   -0.93980821884581
H         0.47883476540625   -3.44822006893543   -0.79004447473048
H        -1.00811062232007   -4.74272390631843   -2.31717165105892
H        -4.15601846347952   -2.02696294659148   -1.31091857912536
C        -2.61192688040863   -0.51302273688341    0.43481067585176
N        -1.61897797067700    0.06611201426621    1.14704244044085
C        -1.89708616714424    1.13797285380302    1.89365099874687
C        -3.16376448595264    1.68792279484113    1.98156852652813
C        -4.19577268648891    1.10415989396756    1.25495310347930
C        -3.91487206900464   -0.00247175292896    0.47474723406313
H        -4.70658629725840   -0.46555828336269   -0.09406536134810
H        -3.33851532580719    2.55155156095776    2.60792179272251
H        -1.05390711710782    1.55555603096589    2.42303746268739
Ir        0.42150000000001   -0.81650000000005    0.91329999999999
H         0.87259999999999   -2.23030000000001    1.54050000000001
B         0.49204018710710    0.42495759132099   -0.78955412242566
O         0.17607672678066   -0.03504979903210   -2.06192137689616
C         0.01106512095209    1.09597299886278   -2.94331315464076
C         0.48993766168037    0.74610887157212   -4.34836547162700
H         1.50896146107751    0.36942753799887   -4.32728077612937
H         0.44515185787592    1.62130675887701   -4.99728177783713
H        -0.14877762985774   -0.02993581322874   -4.76884600930898
C        -1.49318691064005    1.39840025958025   -2.97001756124552
H        -1.73177921377433    2.21114851070561   -3.65444821712999
H        -2.02329355579079    0.50123603876290   -3.28985221713356
H        -1.84008441668757    1.65361760025262   -1.96855418959266
C         0.83264233132231    2.20647674677203   -2.21290726655158
O         0.75604917637254    1.78108605216516   -0.83562029381851
C         2.31523303609289    2.18997001200436   -2.60043829732082
H         2.71955282852264    1.19087068509611   -2.45029981384718
H         2.46721730315397    2.51104099809650   -3.63029081882268
H         2.85763159116801    2.86481225258595   -1.93918579765687
C         0.28112567246043    3.62254535707571   -2.34065301449496
H        -0.72225864576984    3.69162951113236   -1.92852880551024
H         0.92061280867893    4.30644993965470   -1.78404353421811
H         0.26356016181257    3.93489808535507   -3.38494761924929
B         1.56343071608438    0.61666117187931    1.85616041770256
O         2.92442456583233    0.56552398027195    2.13644450137470
C         3.36263948070469    1.88675450577029    2.50880576209586
C         4.53226437862153    1.78909329873431    3.47986766853356
H         4.27909873802068    1.16203255208490    4.33069046652988
H         5.38757162323811    1.34445091350729    2.97266032195847
H         4.81541130977427    2.77935625380076    3.83559961251512
C         3.79904496290017    2.57374137838547    1.21031759355096
H         4.20056699910799    3.56948859677077    1.39384644964056
H         4.56315457507910    1.96218067782942    0.73337206948482
H         2.95113146482219    2.62618090157640    0.52866469755150
C         2.05254278235694    2.50481902896905    3.08910088019972
O         1.03995145825080    1.80928988110155    2.33571430936254
C         1.89409241788238    4.00708661265281    2.88840733759933
H         1.86892555128036    4.25078068406899    1.83008753943636
H         0.95661646365127    4.33660748402711    3.33465013762824
H         2.71452228343305    4.54359085477030    3.36448439145276
C         1.83141439871231    2.13971427475015    4.56121009486213
H         1.93303743383657    1.06383681402420    4.69872214538762
H         2.53241530284517    2.66124868295281    5.21049382443465
H         0.81695195617698    2.41844195585526    4.84537356602783
B         2.27819999999998   -1.33090000000004    0.17410000000000
O         2.90126710026026   -2.56176678889813    0.39147273521584
C         4.26538162135907   -2.48379607438800   -0.07723128458062
C         5.10956616880735   -2.05896931090849    1.12881845669469
H         4.75340314465607   -1.09860954414547    1.49949146990824
H         4.97805568204487   -2.79508733491103    1.92111093731393
H         6.16737810894819   -1.99882366486583    0.87728355401116
C         4.71992621815491   -3.84620052879506   -0.58663115102034
H         4.74943474469529   -4.55048109773286    0.24350713758644
H         5.71769750739624   -3.77507119905384   -1.01893680559765
H         4.03427915721336   -4.23373420670343   -1.33538400971888
C         4.16614660516469   -1.36098879464526   -1.15758952094462
O         3.07435165771413   -0.56393991400046   -0.66217983007432
C         5.40958488253083   -0.49291102537295   -1.31540325360200
H         6.26584662308764   -1.09869136019403   -1.61101621225014
H         5.23143806841583    0.25814673123976   -2.08385820752669
H         5.63737651123582    0.02188085942609   -0.38648281087885
C         3.72900171341422   -1.90056077120192   -2.52557357364241
H         2.83680981770057   -2.51585638444893   -2.41692558489434
H         3.47177947467318   -1.05915467632605   -3.16769433944883
H         4.51881005837924   -2.47792564765297   -3.00340455306980
H        -3.38391142358840   -3.98880298863009   -2.57988130255534
H        -5.19967138129570    1.50586613565504    1.29528797011857
C         0.23590000000003   -1.68140000000004    2.96030000000006
C        -1.00752449411136   -2.03929871694524    3.49148576649841
C         1.31154885296937   -1.72406957031151    3.83450376666221
C        -1.16352190643224   -2.38454911582360    4.82137019490086
H        -1.88583691078547   -2.06095811577740    2.85990938141613
C         1.20104597936807   -2.11015588868952    5.17738946426307
H         2.29788977091604   -1.49107705972366    3.45968025507263
C        -0.06835725308032   -2.47083931823679    5.69774905508280
H        -2.15451314926956   -2.63894068514809    5.16208739189351
C         2.36741933719429   -2.19904153375886    5.98566985785292
N        -0.17357154608745   -2.93879975851681    6.99197579941221
C         2.31633232576054   -2.70863808940489    7.24124439120744
H         3.29743144077514   -1.86809661025747    5.53943793760008
B         0.98112334987600   -3.16361254200464    7.79826095893293
C        -1.50949916049074   -3.19658642345235    7.50547732786870
H         3.24238361373304   -2.78609642064472    7.79665638642794
C         0.94349532853567   -3.95832154946371    9.17145016393767
H        -1.43819781703177   -3.45894782232173    8.55801018656792
H        -1.98766722989864   -4.01941364058713    6.96682900541498
H        -2.13154344555721   -2.30271675930273    7.40960917566599
C         1.58287840894996   -3.46951912941572   10.31436479180845
C         0.41649332084587   -5.25167182830783    9.23763330987587
C         1.69429818728230   -4.22354848469058   11.46936826799380
H         2.00694388163975   -2.47704533919398   10.29622133712608
C         0.52117273890858   -6.02548840562218   10.37922864546912
H        -0.06893336836752   -5.67031968096748    8.36952717630251
C         1.16876809635975   -5.51102201020626   11.49707876679328
H         2.19793236351070   -3.83126900788720   12.34043666197804
H         0.11703735660103   -7.02676994935685   10.40790798414907
C         1.27755466334084   -6.34458174955093   12.73338016026545
F         2.31716679291148   -6.00570683482834   13.52996624167520
F         0.17734889943969   -6.26154447163569   13.52972394181471
F         1.42756062674598   -7.66644085020843   12.47950132973397
118
 energy: -179.835955232951 gnorm: 0.036254142527 xtb: 6.4.1 (1a32961)
N        -0.95598771840414   -2.09258546407174   -0.25868553880486
C        -2.23239567154114   -1.68371816797279   -0.36788744498361
C        -3.13227110157474   -2.35520093184385   -1.20402072756842
C        -2.70990449039215   -3.45432621491303   -1.91953151048291
C        -1.39000536096024   -3.87361704539077   -1.78300302221675
C        -0.56056086824547   -3.15921471989148   -0.94590297950316
H         0.47166977412078   -3.44351196068130   -0.80325309187871
H        -1.01922630207003   -4.73345644659120   -2.31621260221553
H        -4.15160564047380   -2.02101711103591   -1.30066262245921
C        -2.59926624076191   -0.51512317308496    0.42693436654745
N        -1.60865665647382    0.05846521397283    1.14096461055176
C        -1.89274531424406    1.12498290000923    1.88275698007923
C        -3.15455969395929    1.67680903805347    1.97244530407233
C        -4.18742308694513    1.09429085375411    1.24598382325364
C        -3.90272528136556   -0.00611004607792    0.46612021441978
H        -4.69204788996183   -0.47051788894340   -0.10052259711478
H        -3.32962857468000    2.53654037493303    2.59848543472661
H        -1.05473507982997    1.54692849917599    2.41365378554482
Ir        0.42150000000001   -0.81650000000004    0.91329999999999
H         0.87259999999999   -2.23030000000001    1.54050000000001
B         0.49550514410203    0.43611304647785   -0.76642419525800
O         0.15671397706087   -0.02540542142726   -2.03124063654057
C         0.00695515228314    1.09227822220809   -2.92326834129996
C         0.49077831905251    0.73642619000105   -4.32556920880317
H         1.50605774940905    0.35591078827601   -4.30555706495015
H         0.44623661653909    1.61456095384913   -4.96497370369461
H        -0.15212605996947   -0.03345020490713   -4.74445065879760
C        -1.49554482275825    1.40442379604022   -2.97009987258654
H        -1.71526046506183    2.21309356820375   -3.66076450978335
H        -2.02502868384414    0.50957226378166   -3.29067686731583
H        -1.84530689253632    1.66371673708606   -1.97297934330148
C         0.82561091046976    2.20566215606888   -2.20065500902251
O         0.76056887673578    1.78618183997764   -0.82797473777961
C         2.30561856104547    2.19372593707724   -2.59878016732942
H         2.70690702150481    1.19621245998040   -2.44118203669125
H         2.44435620342485    2.50671773559818   -3.62980272956095
H         2.84815525343473    2.87346465579334   -1.94628381808366
C         0.27175404704754    3.62026412861531   -2.33904281205602
H        -0.72758615954495    3.69570508900838   -1.92371812461572
H         0.91643305545693    4.30321956473924   -1.79236981515150
H         0.25501301415331    3.91514584153719   -3.38498584249095
B         1.56532954049428    0.62342897084091    1.86209727585988
O         2.92245181271335    0.57631842856146    2.12426730935007
C         3.36099019729766    1.88770796339065    2.51053803348099
C         4.52853272784576    1.78922844002233    3.48490871142642
H         4.27761634704948    1.15874977057469    4.33086275952965
H         5.38153778249431    1.35101010018893    2.97404373967154
H         4.80223965983233    2.77923162629223    3.83817512590378
C         3.80260880784700    2.58519053721812    1.21972079654267
H         4.20085085982412    3.57695508343816    1.41125976176221
H         4.56605241682184    1.97616462715310    0.74310034985113
H         2.95350987234872    2.63212466671657    0.54219878103879
C         2.05285270315041    2.50465683813008    3.08978526650553
O         1.04178613531303    1.80280552913379    2.34974859676764
C         1.89639936852777    4.00688229189289    2.88719016210325
H         1.86376665840340    4.24897233489899    1.83086238958211
H         0.96395469953009    4.33311111509821    3.33949430033503
H         2.72063802671679    4.53443613293834    3.35862575536008
C         1.84146802789789    2.14747485456078    4.56608351795265
H         1.94517654512793    1.07302098459734    4.69726138051181
H         2.54492653971277    2.67233753957092    5.20447523225852
H         0.82903462439940    2.42331755049759    4.85120702457653
B         2.27819999999998   -1.33090000000003    0.17410000000000
O         2.90331337059912   -2.54979056063745    0.40097253626482
C         4.25785480363677   -2.48275326379646   -0.07685040823342
C         5.11303107968123   -2.06167190021342    1.12240495012611
H         4.75178500210339   -1.10424132444320    1.48998728767078
H         4.98216235673487   -2.79680136269404    1.91208952258353
H         6.16523445176736   -2.00241324092553    0.86219309408960
C         4.71100851958344   -3.84522060791791   -0.58852617685251
H         4.74274013850521   -4.54260891856277    0.24351375361099
H         5.70480139427964   -3.76542051165219   -1.01971450969542
H         4.02527486477228   -4.23463002708387   -1.33270931998132
C         4.16146482409792   -1.36236728917960   -1.15578750804919
O         3.06274153222400   -0.57414434725017   -0.67104846533970
C         5.40664325982299   -0.49633946155633   -1.30967158705321
H         6.25504756749424   -1.10982727708201   -1.59928661230548
H         5.23027611247754    0.24769929558627   -2.08144627168755
H         5.63109990028523    0.02109153803983   -0.38410831824196
C         3.73912801610347   -1.90620602019078   -2.52736124274220
H         2.84779249304716   -2.51849073989856   -2.41753869121947
H         3.48581931811934   -1.06686055825809   -3.17032412782675
H         4.53508598868034   -2.47966341218586   -2.99197132390795
H        -3.39051747557290   -3.97979248457787   -2.57121091574878
H        -5.18982633812114    1.49209184427466    1.29006107000036
C         0.23590000000002   -1.68140000000003    2.96030000000006
C        -1.00755947164106   -2.04164091124830    3.49395044093102
C         1.31049982770798   -1.72342200921207    3.83548267970958
C        -1.16080645624941   -2.38734908721131    4.82253015826749
H        -1.88642769582582   -2.06402101669356    2.86317327473976
C         1.19902553813124   -2.10966413393908    5.17707539242558
H         2.29681679493923   -1.48985588131044    3.46211445647288
C        -0.06722119852946   -2.47180631576928    5.69813375108629
H        -2.15181068542800   -2.64338885079538    5.16260668612148
C         2.36919353762325   -2.19846566641183    5.98917917649694
N        -0.17099142248235   -2.94063557582836    6.99333668386753
C         2.31566503773470   -2.70764252678425    7.23986691107155
H         3.29805133295072   -1.86446637023629    5.54310131792543
B         0.97214334416137   -3.16422174518098    7.79551490527345
C        -1.50567732735315   -3.19867013932280    7.50223635127169
H         3.23847823904178   -2.78400154724163    7.80116977538306
C         0.93837422591231   -3.95537730249687    9.16588754015219
H        -1.43748742403000   -3.46094621913632    8.55374479798179
H        -1.98197721146709   -4.01995392707786    6.96416459668908
H        -2.12663198504282   -2.30675067935014    7.40628675490328
C         1.57690020121132   -3.46601541871670   10.30783752059870
C         0.41440668734425   -5.24929025420497    9.23435384571582
C         1.69017015850373   -4.21828311974581   11.46204823938308
H         1.99954131706388   -2.47317161474642   10.28970238892481
C         0.52100427991183   -6.02139418518231   10.37542063095680
H        -0.07064548289160   -5.67049699682704    8.36715732442525
C         1.16737634690940   -5.50558586954200   11.49255469427175
H         2.19366948470193   -3.82414589826517   12.33216804969039
H         0.11869233093272   -7.02308318477916   10.40480391292100
C         1.27725740833404   -6.33731945538069   12.72890427465871
F         2.31243309848706   -5.99699970140891   13.52128459871486
F         0.17879771015424   -6.25326065123673   13.52153173764501
F         1.42723721028052   -7.65419498300769   12.47577656460527
118
 energy: -179.836473213494 gnorm: 0.035571676699 xtb: 6.4.1 (1a32961)
N        -0.94823797971796   -2.09025517751933   -0.26876149860608
C        -2.22545855564866   -1.68104267850953   -0.37297277389847
C        -3.13051649424124   -2.35265488535537   -1.20461518635894
C        -2.71376646744188   -3.45252882214761   -1.92113941298747
C        -1.39214779639519   -3.87219639851514   -1.79052598291362
C        -0.55831522014036   -3.15680308441597   -0.95819841441178
H         0.47384410995456   -3.44502039430912   -0.82020418895054
H        -1.02554335995533   -4.73323704287357   -2.32391565531993
H        -4.14983588925323   -2.01668696544221   -1.29528443600022
C        -2.59009772948925   -0.51529713695150    0.42167329512855
N        -1.59973887809282    0.05743215064430    1.13763107432952
C        -1.88631117650996    1.12350421039923    1.87855680782746
C        -3.14831797831513    1.67426873856316    1.96908329430281
C        -4.18187510770694    1.09093161601301    1.24168130434642
C        -3.89456140491274   -0.00697295275599    0.46041738953740
H        -4.68163464745187   -0.47164370371371   -0.10905617336384
H        -3.32439681789070    2.53215233520835    2.59647548952990
H        -1.05120020594986    1.54596069223647    2.41424922818282
Ir        0.42150000000001   -0.81650000000004    0.91329999999999
H         0.87259999999999   -2.23030000000001    1.54050000000001
B         0.48275932594175    0.44974008531064   -0.74825137348647
O         0.13674727455661   -0.01785944134135   -2.00882795998333
C        -0.00105250974082    1.09173118824078   -2.90747021208598
C         0.48959189129009    0.72517988353480   -4.30539302060904
H         1.50247602936010    0.33880956967517   -4.27891959185645
H         0.45236659547426    1.60261394962652   -4.94585607357980
H        -0.15635914840285   -0.04228250319633   -4.72387640165280
C        -1.50231534419709    1.41188771391589   -2.96967245074163
H        -1.70814880045065    2.21832648670212   -3.66686316797681
H        -2.03289267522054    0.51825855836419   -3.29144892734875
H        -1.86011900490869    1.67807578819948   -1.97727917492969
C         0.81873052984178    2.20768798654244   -2.18945922093305
O         0.76133803484904    1.79536387000922   -0.81725058843759
C         2.29731521113035    2.19651922778275   -2.59604384064145
H         2.70071894359879    1.20086426918378   -2.43219629824924
H         2.42768930344747    2.50147175766212   -3.63032167214520
H         2.84119139650515    2.88335335558885   -1.95219408754833
C         0.26380573493870    3.62196378068073   -2.33591075990110
H        -0.73364720578852    3.70136644822224   -1.91695794494891
H         0.91186955544909    4.30950494189974   -1.79896862359911
H         0.24269440108566    3.90474586283956   -3.38503539134277
B         1.56578743646684    0.62533263873337    1.86683132191054
O         2.92343258984687    0.58176779135511    2.11466747959108
C         3.36076880581866    1.88871566490115    2.51111528008256
C         4.52736009875435    1.78749608178208    3.48775945566529
H         4.27713897854179    1.15228711875212    4.33028768398547
H         5.38256949748107    1.35501879138199    2.97574220363158
H         4.79536795621972    2.77738896226212    3.84538735074216
C         3.80619075793416    2.59630656687731    1.22614235308948
H         4.20096467860246    3.58738348409815    1.42651147279794
H         4.57307705745961    1.99194186832786    0.74904935537225
H         2.95881345949354    2.64490212945405    0.54681805733518
C         2.05301375110737    2.50428092217921    3.09304050505841
O         1.04071711066479    1.79765523882733    2.36244936337761
C         1.89535104657264    4.00678174053713    2.88744494884991
H         1.85531240442974    4.24700443970319    1.83087902314016
H         0.96686982141612    4.33475956301010    3.34659828234839
H         2.72460725467648    4.53246763134530    3.35187777506409
C         1.85054137391203    2.15360224265220    4.57308226697274
H         1.95699805554377    1.07988048718135    4.70674039735207
H         2.55747995793193    2.68295796817807    5.20341883948314
H         0.83930730371084    2.42907243118258    4.86227677995989
B         2.27819999999999   -1.33090000000002    0.17410000000000
O         2.90434632528029   -2.54453752659778    0.41029091081309
C         4.25338059042176   -2.48306831110256   -0.07553365761658
C         5.11750570236553   -2.06328100132896    1.11881831121110
H         4.75790762686812   -1.10597006555053    1.48808491754235
H         4.99029458960565   -2.79904663367206    1.90835159827742
H         6.16745405027122   -2.00479197498286    0.85102157564900
C         4.70223505326612   -3.84765907403594   -0.58789598872384
H         4.73714854882940   -4.54340021960319    0.24530186322664
H         5.69404693999678   -3.76629215313890   -1.02281215329676
H         4.01349572180122   -4.23765929385857   -1.32896000120657
C         4.15798343641789   -1.36433596525564   -1.15641470392018
O         3.05478273664099   -0.57940408509179   -0.68039598295271
C         5.40360903973459   -0.49722204341015   -1.30581038201850
H         6.25180884108514   -1.11440316470527   -1.58785051292201
H         5.23167703833308    0.24314352073729   -2.08206071919152
H         5.62335347156204    0.02362732932548   -0.38109783141809
C         3.74743628067739   -1.91214378066600   -2.53089848359485
H         2.85638592411791   -2.52542307852011   -2.42623360622637
H         3.49934669276233   -1.07429740768151   -3.17780372589471
H         4.54928152889321   -2.48506045065254   -2.98534867768998
H        -3.39794478131089   -3.97774869346815   -2.56909470274781
H        -5.18482845036181    1.48662581168985    1.28660011334273
C         0.23590000000001   -1.68140000000003    2.96030000000007
C        -1.00758206637433   -2.04305245783149    3.49308645684019
C         1.31048265034349   -1.72195166005549    3.83584589538302
C        -1.16033536122387   -2.38919449328065    4.82132623074410