98
 energy: -145.458491095123 gnorm: 0.078450811921 xtb: 6.4.1 (1a32961)
N        -0.96510000000000   -2.11530000000000   -0.24090000000000
C        -2.24700000000000   -1.69840000000000   -0.36220000000000
C        -3.14040000000000   -2.36820000000000   -1.21200000000000
C        -2.70220000000000   -3.47560000000000   -1.93050000000000
C        -1.37780000000000   -3.89880000000000   -1.78760000000000
C        -0.54290000000000   -3.18670000000000   -0.93510000000000
H         0.49810000000000   -3.45630000000000   -0.78940000000000
H        -0.99570000000000   -4.76030000000000   -2.32770000000000
H        -4.16500000000000   -2.02890000000000   -1.31830000000000
C        -2.62130000000000   -0.50950000000000    0.44100000000000
N        -1.62600000000000    0.07330000000000    1.16020000000000
C        -1.89680000000000    1.15240000000000    1.91690000000000
C        -3.17230000000000    1.70330000000000    1.99650000000000
C        -4.20510000000000    1.11740000000000    1.26270000000000
C        -3.92610000000000    0.00250000000000    0.47820000000000
H        -4.71960000000000   -0.46420000000000   -0.09520000000000
H        -3.34630000000000    2.57510000000000    2.62070000000000
H        -1.04450000000000    1.57420000000000    2.43690000000000
Ir        0.42150000000000   -0.81650000000000    0.91330000000000
H         0.87260000000000   -2.23030000000000    1.54050000000000
B         0.50670000000000    0.41560000000000   -0.81540000000000
O         0.19500000000000   -0.04700000000000   -2.09150000000000
C         0.00650000000000    1.10040000000000   -2.95430000000000
C         0.49020000000000    0.74740000000000   -4.35780000000000
H         1.51610000000000    0.37380000000000   -4.33700000000000
H         0.44730000000000    1.62240000000000   -5.01670000000000
H        -0.14740000000000   -0.03390000000000   -4.78430000000000
C        -1.50120000000000    1.39560000000000   -2.96670000000000
H        -1.75370000000000    2.21460000000000   -3.64850000000000
H        -2.03200000000000    0.49450000000000   -3.28930000000000
H        -1.85170000000000    1.65210000000000   -1.96220000000000
C         0.84230000000000    2.20670000000000   -2.22040000000000
O         0.75200000000000    1.78260000000000   -0.83690000000000
C         2.32930000000000    2.18620000000000   -2.59900000000000
H         2.74130000000000    1.18500000000000   -2.45750000000000
H         2.48870000000000    2.51300000000000   -3.63180000000000
H         2.87200000000000    2.86270000000000   -1.93200000000000
C         0.28440000000000    3.62290000000000   -2.33660000000000
H        -0.72650000000000    3.69040000000000   -1.92910000000000
H         0.92130000000000    4.31480000000000   -1.77610000000000
H         0.26430000000000    3.94810000000000   -3.38320000000000
B         1.56300000000000    0.60960000000000    1.84840000000000
O         2.92780000000000    0.55230000000000    2.15020000000000
C         3.36330000000000    1.88660000000000    2.50260000000000
C         4.53140000000000    1.78590000000000    3.47740000000000
H         4.27910000000000    1.16090000000000    4.33690000000000
H         5.39390000000000    1.33790000000000    2.97340000000000
H         4.82390000000000    2.77870000000000    3.83820000000000
C         3.79700000000000    2.56850000000000    1.19670000000000
H         4.20020000000000    3.57090000000000    1.37680000000000
H         4.56740000000000    1.95560000000000    0.72110000000000
H         2.95240000000000    2.63260000000000    0.50540000000000
C         2.05040000000000    2.50090000000000    3.09320000000000
O         1.03750000000000    1.81620000000000    2.31910000000000
C         1.89100000000000    4.00450000000000    2.88650000000000
H         1.87290000000000    4.25440000000000    1.82410000000000
H         0.94940000000000    4.34260000000000    3.33170000000000
H         2.71080000000000    4.55150000000000    3.36630000000000
C         1.82470000000000    2.13200000000000    4.56520000000000
H         1.92610000000000    1.05330000000000    4.71320000000000
H         2.52610000000000    2.65280000000000    5.22540000000000
H         0.80630000000000    2.41580000000000    4.84900000000000
B         2.27820000000000   -1.33090000000000    0.17410000000000
O         2.89460000000000   -2.57740000000000    0.38450000000000
C         4.26930000000000   -2.48200000000000   -0.07210000000000
C         5.10900000000000   -2.05380000000000    1.14010000000000
H         4.76350000000000   -1.08740000000000    1.51750000000000
H         4.98050000000000   -2.79470000000000    1.93590000000000
H         6.17420000000000   -1.99290000000000    0.89300000000000
C         4.71950000000000   -3.84660000000000   -0.58470000000000
H         4.75280000000000   -4.56130000000000    0.24420000000000
H         5.72330000000000   -3.78370000000000   -1.02010000000000
H         4.03500000000000   -4.23600000000000   -1.34170000000000
C         4.16440000000000   -1.36220000000000   -1.16300000000000
O         3.08520000000000   -0.55030000000000   -0.65400000000000
C         5.40720000000000   -0.48870000000000   -1.31550000000000
H         6.27320000000000   -1.09010000000000   -1.61530000000000
H         5.23300000000000    0.26930000000000   -2.08590000000000
H         5.64270000000000    0.02650000000000   -0.38240000000000
C         3.71800000000000   -1.89830000000000   -2.53110000000000
H         2.82530000000000   -2.52160000000000   -2.42740000000000
H         3.46090000000000   -1.05250000000000   -3.17550000000000
H         4.50570000000000   -2.48290000000000   -3.01790000000000
H        -3.38500000000000   -4.00130000000000   -2.59310000000000
H        -5.21400000000000    1.52080000000000    1.29960000000000
C         0.23590000000000   -1.68140000000000    2.96030000000000
C        -0.99604449100818   -2.10854994960286    3.49412490247028
C         1.31290046992112   -1.87213174541489    3.85499655456310
C        -1.15698707516329   -2.58557038393076    4.80372948002433
C        -2.21418512553276   -2.20013462942556    2.77691858993335
C         2.69849061966774   -1.69698925472539    3.58392988958659
C         1.17532169007806   -2.38945531323167    5.14802184704104
C        -0.06913319066685   -2.74294662206708    5.64187678371118
H        -2.14743198633639   -2.87473227184285    5.13545194772159
N        -3.26333230287673   -2.38679909088691    2.34087256902002
N         3.84447376480197   -1.71553021362904    3.68137676420715
H         2.06746826893548   -2.55147628289472    5.74172634853411
H        -0.17469985847916   -3.16438157730027    6.63238827759933
98
 energy: -145.466466025984 gnorm: 0.047637102525 xtb: 6.4.1 (1a32961)
N        -0.96167998018382   -2.09299428863404   -0.26445535293453
C        -2.23532946570852   -1.67616851997263   -0.38376629483153
C        -3.13260230458385   -2.35625400572050   -1.21397723773711
C        -2.70442755531572   -3.46452056673035   -1.92209926631462
C        -1.38624887266580   -3.88471355993098   -1.78263930776025
C        -0.55553425044772   -3.16774565810424   -0.94322905006330
H         0.47844458453115   -3.44796222226347   -0.79223539910407
H        -1.00969734657316   -4.74615285402353   -2.31551576855103
H        -4.15419708065640   -2.02427968930582   -1.31239524621439
C        -2.60500239573540   -0.48845850867608    0.40567207867117
N        -1.61704308901458    0.08811564896215    1.12306249835149
C        -1.89904517933081    1.14589826856225    1.88769727130533
C        -3.16794163214637    1.68926009469321    1.98292610744718
C        -4.19574408932887    1.10724663121100    1.25203089389229
C        -3.91018203527259    0.01030450020088    0.45853063869832
H        -4.70366573073884   -0.46408808166868   -0.09713171652576
H        -3.34408832170799    2.54783195210160    2.61574376914056
H        -1.05656976955979    1.56173147904223    2.42084049206777
Ir        0.42150000000000   -0.81650000000000    0.91330000000000
H         0.87260000000000   -2.23030000000000    1.54050000000000
B         0.49680791803303    0.41974260535549   -0.79278737589772
O         0.17667024101101   -0.03788826286891   -2.06341629057888
C         0.00991841627616    1.09552405446834   -2.94282554761507
C         0.48867135029485    0.74727262122956   -4.34822410504618
H         1.50790866000291    0.37121430957094   -4.32777912307796
H         0.44311621367994    1.62310784945512   -4.99600160916467
H        -0.14993808133685   -0.02856026158200   -4.76901125877566
C        -1.49439277013767    1.39778944672080   -2.96814642004980
H        -1.73297914507718    2.21100099747549   -3.65185639253291
H        -2.02456845110239    0.50102102025941   -3.28856711432435
H        -1.84144651865447    1.65237230034085   -1.96654584891510
C         0.83189622491453    2.20538238880112   -2.21110892296769
O         0.75665308851439    1.77574402738519   -0.83388227040739
C         2.31438130284864    2.19066873351113   -2.59920183531049
H         2.72021992030034    1.19198599053805   -2.45065883757492
H         2.46517656213894    2.51302330580624   -3.62867874593259
H         2.85664103514038    2.86536323007382   -1.93777582516387
C         0.27951468086599    3.62144326307560   -2.33706813667236
H        -0.72395809441062    3.69033033237883   -1.92524319924071
H         0.91893999621182    4.30551133048944   -1.78067607156665
H         0.26189566983746    3.93433686432188   -3.38111205359581
B         1.56129053415801    0.62672204766669    1.84853803407529
O         2.92033670780186    0.57569509964936    2.12144581543977
C         3.36197853486050    1.89261433271799    2.50618264624631
C         4.53131956557383    1.79059766669188    3.47687800042086
H         4.28082756188603    1.15713085512528    4.32349416698094
H         5.38438267946600    1.34389560818875    2.96915459680879
H         4.81541817633350    2.77989668582893    3.83549348548943
C         3.79814953896060    2.57904074293755    1.20798868033254
H         4.20107153539523    3.57351014913874    1.39329657236944
H         4.56165415765297    1.96513777445017    0.73315553279660
H         2.95050410048867    2.63204121629433    0.52587948637333
C         2.05186771122341    2.50805363089866    3.08964626632612
O         1.03525624168677    1.81342145577345    2.33883185089472
C         1.89191621753769    4.00957545998744    2.89029977216743
H         1.86683855524562    4.25241942397705    1.83185656214496
H         0.95464635785625    4.33837828850557    3.33739179791765
H         2.71336859216168    4.54429872900573    3.36605877391143
C         1.83196014751380    2.14059591212000    4.56149572776092
H         1.94061124627100    1.06506205757748    4.69951650074729
H         2.53320735597560    2.66138125060745    5.21037931899937
H         0.81696369894929    2.41688238657745    4.84784909437639
B         2.27820000000001   -1.33090000000002    0.17410000000000
O         2.90147004681871   -2.56055715734363    0.39116082744489
C         4.26587569328209   -2.48385278820186   -0.08537801132234
C         5.12633176977354   -2.05966727267296    1.10657367988806
H         4.77563685353866   -1.10204918714175    1.48664923952435
H         4.99956229582649   -2.78979434961099    1.90372838830353
H         6.18232102944562   -2.00109859948207    0.85023758141982
C         4.71767160256478   -3.84697777594775   -0.59379110163895
H         4.75008564695610   -4.54830841863948    0.23887421128555
H         5.71532858710794   -3.77477102571136   -1.02574949762383
H         4.03159401857147   -4.23657604682600   -1.34114876598609
C         4.16314384938677   -1.35906060521993   -1.16214193043332
O         3.06980404041341   -0.56348966255516   -0.66397097893621
C         5.40641982833570   -0.49041178263102   -1.31781071239611
H         6.26257060833077   -1.09613928083360   -1.61341823152979
H         5.22907143091278    0.26188070597744   -2.08527914042474
H         5.63435142536015    0.02143509158950   -0.38727206585601
C         3.72576427952366   -1.89757721528158   -2.53003217794228
H         2.83462759757446   -2.51443505093976   -2.42130523555264
H         3.46859141770081   -1.05601792652820   -3.17180105910029
H         4.51666805697219   -2.47427261358960   -3.00656864055169
H        -3.38462770332444   -3.99169510899864   -2.57693621837043
H        -5.20185612082791    1.50170018936435    1.30008385583925
C         0.23589999999996   -1.68139999999998    2.96030000000005
C        -1.00033996117016   -2.11065722186492    3.49057258621676
C         1.31017090648367   -1.86299975659064    3.86573917998111
C        -1.16362445027042   -2.58230311432140    4.80320351381620
C        -2.21017223531977   -2.20892405631893    2.77019998273481
C         2.69237345195277   -1.68308740214376    3.60128151443670
C         1.16277671175790   -2.37527400434307    5.15953130831202
C        -0.08143674922111   -2.73065646953460    5.64445673971868
H        -2.15239506045733   -2.87332289852815    5.13091411542910
N        -3.25465837862269   -2.40127518291082    2.32937596699092
N         3.83625548488760   -1.69641970115355    3.70271475653762
H         2.04944815139476   -2.53106295222087    5.75875089070965
H        -0.19078024538502   -3.14741346178859    6.63354402704998
98
 energy: -145.469366903043 gnorm: 0.037390340273 xtb: 6.4.1 (1a32961)
N        -0.95397515648996   -2.07818517934182   -0.28448866480494
C        -2.22108234280103   -1.65589968511500   -0.40624617172654
C        -3.12508423506808   -2.33805676372064   -1.22496929487887
C        -2.70875363099397   -3.45202632648663   -1.92371442285201
C        -1.39277749828692   -3.87433027164596   -1.78682555744189
C        -0.56123367702408   -3.15500918073326   -0.95510829271339
H         0.46895628093240   -3.44449324065550   -0.80444101235358
H        -1.02392338101386   -4.74072019415062   -2.31035792753737
H        -4.14569921198865   -2.00886348223995   -1.31274458074941
C        -2.58843684240398   -0.47619160807884    0.38068913737848
N        -1.60616161999870    0.09456650712439    1.10136568602239
C        -1.89561514105584    1.14342968070726    1.86457529496253
C        -3.16215218683798    1.68228400547263    1.96805037803668
C        -4.18776130011655    1.10109041958779    1.23569593682899
C        -3.89452437421717    0.01646674878886    0.43493153456450
H        -4.68421187621051   -0.46024713035883   -0.11823595304648
H        -3.34262445494023    2.52598497751977    2.61432183746867
H        -1.06074834499625    1.55931303806930    2.40667563846580
Ir        0.42150000000000   -0.81650000000000    0.91330000000000
H         0.87260000000000   -2.23030000000000    1.54050000000000
B         0.50038519199771    0.42662857762755   -0.77210523085851
O         0.15791114529991   -0.03056601034011   -2.03407075476979
C         0.00501053623483    1.09145313716513   -2.92269215020730
C         0.48752187112868    0.74032684591080   -4.32633584439660
H         1.50316178216607    0.36147919549708   -4.30821839545323
H         0.44059350412413    1.62004611553830   -4.96278131881228
H        -0.15485079765177   -0.02918908297242   -4.74579324386006
C        -1.49761860610716    1.40202086600679   -2.96571021986179
H        -1.71795613779743    2.21188176293014   -3.65408426121424
H        -2.02705634564746    0.50797208538640   -3.28747209425639
H        -1.84651874142933    1.65897449102137   -1.96780738000925
C         0.82360941668480    2.20324989328550   -2.19686042618833
O         0.76229028683827    1.77522611578123   -0.82455391831657
C         2.30301249055427    2.19556689239124   -2.59656594737078
H         2.70706956815405    1.19887165417166   -2.44244077236765
H         2.43911906485968    2.51191464388347   -3.62648834142070
H         2.84489298404797    2.87449587168093   -1.94312745080545
C         0.26795995865267    3.61760848893169   -2.32978557420868
H        -0.73113893103832    3.69158966557772   -1.91433969981931
H         0.91250653418701    4.29990023536462   -1.78267004266644
H         0.25083802534678    3.91420445497310   -3.37486982043807
B         1.56003283813987    0.63661766358538    1.85807918275933
O         2.91461419961747    0.59463640458359    2.09570631856277
C         3.35788422938490    1.89926580367657    2.50285572117564
C         4.52576371005309    1.79101630835888    3.47489465328877
H         4.27965880325376    1.14798627690661    4.31243217279585
H         5.37513105820087    1.35175160346087    2.96096399229985
H         4.80035048975919    2.77816050496693    3.83531395025884
C         3.80022572730264    2.60115673147634    1.21540237426722
H         4.20167096165570    3.59047399623825    1.40944907530917
H         4.56157924120648    1.98816022804610    0.74112258126025
H         2.95158354049412    2.64936510634506    0.53762857456969
C         2.05112162301472    2.51165101369702    3.09087320481780
O         1.03286563897501    1.80847819310167    2.35793901110304
C         1.89121314758451    4.01289234666647    2.89148029628990
H         1.85751926025687    4.25435231365550    1.83537611258380
H         0.95946631117488    4.33716904931720    3.34586636174594
H         2.71667988913826    4.53812306312636    3.36211245784019
C         1.84595638603590    2.15044461730545    4.56716066703150
H         1.96332303444778    1.07683101302412    4.69821326952099
H         2.54881603110998    2.67624062507503    5.20429320770173
H         0.83230943162082    2.41880036250064    4.85628054339268
B         2.27820000000003   -1.33090000000005    0.17410000000001
O         2.90843314132355   -2.54428632909554    0.40394146512204
C         4.26124229145998   -2.48017510154566   -0.09406482044962
C         5.14534363733201   -2.06317775966816    1.08131109091522
H         4.79983620071000   -1.10741546174907    1.46472563432323
H         5.02820745663187   -2.78811138527027    1.88109146016247
H         6.19159176567266   -2.01011795523093    0.80024142258105
C         4.70508565833625   -3.84466302034933   -0.60736066011078
H         4.74176522044768   -4.53715065792060    0.22846859255993
H         5.69780911591634   -3.76505028796311   -1.03991188909607
H         4.01722619636872   -4.23735058932498   -1.34762216685862
C         4.15402956082940   -1.35785343435049   -1.16811335255270
O         3.05154860675751   -0.57413579092322   -0.67712168137910
C         5.39710833538125   -0.48857361621428   -1.31969717263804
H         6.24563866963881   -1.10098715570221   -1.60981326853984
H         5.22083806613845    0.25771271056597   -2.08886655679570
H         5.62114860957814    0.02376691338483   -0.39152276941312
C         3.73057763288851   -1.89817597251605   -2.53987877892713
H         2.84147880935655   -2.51327536498415   -2.42949402144298
H         3.47624175876948   -1.05882835108103   -3.18175593629581
H         4.52842972158370   -2.46957054169913   -3.00283665576280
H        -3.39366780167080   -3.98574894786154   -2.56351106751368
H        -5.19538887434667    1.48227075723950    1.29678505820610
C         0.23589999999990   -1.68139999999995    2.96030000000011
C        -1.00549926474697   -2.11294582630165    3.48092825937304
C         1.30562784038215   -1.84874401583754    3.87724747101640
C        -1.17700184082595   -2.57498632453911    4.79730377384639
C        -2.20277959255493   -2.21457383135136    2.74694254362320
C         2.68419797231385   -1.65718868573542    3.61420787092975
C         1.14535160089276   -2.34915150634545    5.17449548066870
C        -0.10193693815896   -2.70739436552726    5.64801775918201
H        -2.16626961250451   -2.86831818123099    5.11810671608585
N        -3.24020796457241   -2.41096525754007    2.28909560876791
N         3.82978422960025   -1.66305827449128    3.70804641043376
H         2.02491857950469   -2.49067086753727    5.78607474972551
H        -0.21888807405172   -3.11418064593221    6.63934352918620
98
 energy: -145.471089791568 gnorm: 0.036526625093 xtb: 6.4.1 (1a32961)
N        -0.94335524074518   -2.06694446155347   -0.30698857850935
C        -2.20783952028401   -1.63851764868241   -0.43075005586494
C        -3.11901915582519   -2.32197455681683   -1.24101212699159
C        -2.71340373690542   -3.44472415395748   -1.93037709623482
C        -1.39751454944857   -3.87099004572053   -1.79609176831144
C        -0.56014219364997   -3.14814122249549   -0.97281469609913
H         0.46811343535223   -3.44583653620459   -0.82372657611791
H        -1.03610458251673   -4.74423094683336   -2.31183205663684
H        -4.13788536437157   -1.98816503749463   -1.32517784601296
C        -2.57222659012775   -0.45970644920009    0.35185250644147
N        -1.59378346343966    0.10532379094250    1.08152246923375
C        -1.89015529523055    1.14694541104702    1.85003841576979
C        -3.15884714455507    1.67893599564841    1.95970229445411
C        -4.18249218527610    1.09913150936121    1.22115223541634
C        -3.88055706632206    0.02824898760205    0.40648124413687
H        -4.66598220279878   -0.44813437357120   -0.15182905995889
H        -3.34345564894387    2.51315547615822    2.61536200079793
H        -1.06016305296220    1.56624902419150    2.39689965177437
Ir        0.42149999999999   -0.81649999999999    0.91330000000000
H         0.87260000000000   -2.23030000000000    1.54050000000000
B         0.49160067551008    0.43906245429461   -0.75142773469231
O         0.13652003577961   -0.02318687632620   -2.00699988771050
C        -0.00424412983346    1.08993942263422   -2.90215203681522
C         0.48445569684373    0.73051775291093   -4.30240755751161
H         1.49763782549017    0.34654147955652   -4.28052004191873
H         0.44264927080504    1.61159722204218   -4.93608993869886
H        -0.16141188954195   -0.03535440264930   -4.72207452351591
C        -1.50576664655146    1.40848793886601   -2.96173946206881
H        -1.71032145850904    2.21653226807679   -3.65592866522123
H        -2.03562170831142    0.51611560876393   -3.28607689686468
H        -1.86257733559952    1.67081557211237   -1.96847235103414
C         0.81484452210526    2.20433890226401   -2.18117525306472
O         0.76622970592716    1.78160436604964   -0.81068790720693
C         2.29179422571213    2.20118409657055   -2.59320822050545
H         2.69905676299214    1.20691676868984   -2.43369981119627
H         2.41521933783420    2.51014903265491   -3.62621890634480
H         2.83463076574707    2.88775077902591   -1.94922844151377
C         0.25539321842204    3.61754946137828   -2.31949357759784
H        -0.74084436275180    3.69430737647435   -1.89872474065983
H         0.90403267510690    4.30367160335350   -1.78280770843546
H         0.23273048016355    3.90108709194797   -3.36746252628837
B         1.56035531567295    0.64762829151476    1.85573639513639
O         2.91321136081544    0.61323667055204    2.06627841235978
C         3.35542832659356    1.90849228349567    2.49650089441118
C         4.52272382840682    1.78929965422873    3.46965152422149
H         4.27906209888792    1.13374000515587    4.29791701353203
H         5.37337057172458    1.36053837214551    2.94957853723427
H         4.79005716360289    2.77349894389816    3.84133590258616
C         3.80259970328116    2.62912562430265    1.21983362555425
H         4.20079531107667    3.61579444229919    1.42845020367274
H         4.56689994810762    2.02211543309821    0.74314046437958
H         2.95571504582820    2.68144263161511    0.54094512700611
C         2.04994529919999    2.51433090374003    3.09439546626968
O         1.02779158029461    1.80339981463894    2.37792609504683
C         1.88564736884870    4.01602767237649    2.89457106428226
H         1.84101703758193    4.25748071941073    1.83908737026725
H         0.95937337073033    4.33970180762886    3.35958789988980
H         2.71726258294353    4.53789812571219    3.35665822563266
C         1.86307642401192    2.15928275541468    4.57593212389780
H         1.99061129850446    1.08728654656303    4.70764541808044
H         2.56866688426760    2.69406169883725    5.20140565545234
H         0.85020203844171    2.42048332521126    4.87228318907568
B         2.27820000000006   -1.33090000000008    0.17410000000002
O         2.91545058055391   -2.53244389628799    0.41880028060664
C         4.25730202971329   -2.47689024743291   -0.10205452225982
C         5.16716862247558   -2.06524272379720    1.05692325815252
H         4.83276721425802   -1.10833187737323    1.44707638168095
H         5.06299265439317   -2.78982893303551    1.85840529566687
H         6.20627721120874   -2.01793021961613    0.74990624730420
C         4.68943896673118   -3.84477729340691   -0.62055121962028
H         4.73221593760528   -4.53460477128947    0.21653647596050
H         5.67775873274498   -3.76426199761037   -1.06140692557721
H         3.99452871321883   -4.23692341507540   -1.35387088907616
C         4.14394884009447   -1.35659366549820   -1.17752470373097
O         3.03326846059024   -0.58163741992864   -0.69490863365379
C         5.38461176642708   -0.48187071469486   -1.32564566489430
H         6.23271094458174   -1.09728780366435   -1.60844360405073
H         5.21053528650358    0.25948754298206   -2.09923510057327
H         5.60305369722115    0.03422060918449   -0.39876085125147
C         3.73430692478544   -1.90088872544971   -2.55291963993270
H         2.84644195729182   -2.51776728875251   -2.44814216615572
H         3.48462652280351   -1.06289969753299   -3.19770778256267
H         4.53982762134551   -2.46923382713320   -3.00440295932588
H        -3.40502253915871   -3.98317659438096   -2.55823812646775
H        -5.19276900980080    1.47031295385373    1.28934076564087
C         0.23589999999982   -1.68139999999991    2.96030000000019
C        -1.01033100250954   -2.11395595852620    3.46934417489996
C         1.29852123932460   -1.83037536781654    3.88961822801466
C        -1.19396602328689   -2.56255992337171    4.78916701765171
C        -2.19118759475623   -2.23167823527676    2.71303987471422
C         2.67542156590897   -1.64014729495625    3.62269176688277
C         1.12426165397295   -2.31258983013534    5.19207660115365
C        -0.12735346214834   -2.67362034028389    5.65371009891304
H        -2.18481133434083   -2.86049433432722    5.10077978789835
N        -3.22276286489010   -2.42435584095428    2.24061494009091
N         3.82118360502509   -1.61641100945981    3.71740256348093
H         1.99617565211242   -2.43701981201423    5.81879541125962
H        -0.25401446518935   -3.06722646391170    6.64946767310927
98
 energy: -145.472688007448 gnorm: 0.040255585891 xtb: 6.4.1 (1a32961)
N        -0.93104678583188   -2.05916245909726   -0.33078903445172
C        -2.19277811542053   -1.62042284963468   -0.46066319408509
C        -3.11017070197895   -2.30151244791977   -1.26720259044792
C        -2.71714215079933   -3.43632794779866   -1.94387565835281
C        -1.40204603302778   -3.86977869542895   -1.80992977663696
C        -0.55693387278997   -3.14488495848911   -0.99446615366568
H         0.47029830161895   -3.44999958403072   -0.84990546778161
H        -1.04937970339712   -4.75162108225828   -2.31737275249971
H        -4.12604403437326   -1.95828875851886   -1.35211208189293
C        -2.55475024862959   -0.44295524211517    0.32099997069620
N        -1.58046665376844    0.11297060514224    1.06624061746895
C        -1.88298119300251    1.15205495265787    1.83711418305983
C        -3.15453897553729    1.67776133774082    1.94888916696945
C        -4.17523381287916    1.10198695085432    1.19965895620746
C        -3.86371702728556    0.04670826480338    0.36865600020828
H        -4.64250555260809   -0.42241788642173   -0.20541047931626
H        -3.34458470290695    2.50086456575748    2.61666097985375
H        -1.05796216515746    1.57466990398430    2.38975159628911
Ir        0.42149999999999   -0.81649999999999    0.91330000000000
H         0.87260000000000   -2.23030000000000    1.54049999999999
B         0.48889366859877    0.45536388736303   -0.72788920205086
O         0.10895533026185   -0.01178863198664   -1.97418248364232
C        -0.01920979874805    1.09126949542787   -2.87610390774274
C         0.47792743129939    0.71679043791879   -4.27072155652788
H         1.48762476375711    0.32339735470684   -4.23870460348686
H         0.44821592003007    1.59589262467845   -4.90825957008219
H        -0.17235052531697   -0.04594058233305   -4.69015589098090
C        -1.51918211356254    1.41962346307741   -2.95547308630588
H        -1.70654524019189    2.22550399605390   -3.65721909680207
H        -2.05031197644445    0.52893038336605   -3.28304709841875
H        -1.88885565173021    1.69014037390833   -1.96871282328231
C         0.80386561029973    2.20969555055205   -2.16255514273831
O         0.77170383169274    1.79316254091811   -0.79311035068241
C         2.27789002274577    2.21146863460152   -2.58929174663208
H         2.69193853066339    1.22096408192935   -2.42186597666558
H         2.38715662292462    2.50905426601240   -3.62734578371898
H         2.82234392906815    2.90974219750588   -1.95868477079929
C         0.23758134168145    3.62088956484824   -2.30492470009920
H        -0.75476615478251    3.69877767902490   -1.87435023660155
H         0.89076599532535    4.31458749080958   -1.78263086496915
H         0.20259843110989    3.89171397769205   -3.35633098463710
B         1.56013932910276    0.65563964807915    1.85737180422268
O         2.91540293473887    0.63810940799625    2.02521854813297
C         3.35431176923692    1.92289267082468    2.48575641244223
C         4.52175000019933    1.78573399364243    3.45875731679442
H         4.28071937363431    1.10955429821479    4.27217982498253
H         5.37639023598672    1.37401684085892    2.93006621375662
H         4.78127397455774    2.76402191867354    3.85325912762229
C         3.80614482945283    2.67213813528552    1.22508760184704
H         4.19828019341748    3.65669403945538    1.45632783349865