15
 energy: -24.252712707062 gnorm: 0.054224698587 xtb: 6.4.1 (1a32961)
C         1.07012000000000   -1.43004000000000    0.00844000000000
C         2.21806000000000   -0.62366000000000    0.00119000000000
C         2.11963000000000    0.77058000000000   -0.00840000000000
C         0.87437000000000    1.40778000000000   -0.01004000000000
C        -0.24647000000000    0.58106000000000   -0.00820000000000
O        -1.54187000000000    1.00192000000000   -0.01756000000000
C        -2.31921000000000   -0.11276000000000   -0.01884000000000
C        -1.54124000000000   -1.24757000000000   -0.00523000000000
C        -0.19085000000000   -0.80864000000000    0.00017000000000
H         1.15822000000000   -2.51210000000000    0.01648000000000
H         3.19994000000000   -1.09256000000000    0.00173000000000
H         3.02609000000000    1.37231000000000   -0.01600000000000
H         0.77842000000000    2.48652000000000   -0.01650000000000
H        -3.38566000000000    0.06414000000000   -0.03103000000000
H        -1.90118000000000   -2.26610000000000   -0.00366000000000
15
 energy: -24.254976538944 gnorm: 0.018514105443 xtb: 6.4.1 (1a32961)
C         1.06892973383002   -1.42566494577198    0.00527349454825
C         2.19709550296164   -0.62512434946421    0.00134291683347
C         2.10571428445961    0.76731768098981   -0.00758566148556
C         0.87877888236640    1.40971104988613   -0.01294039127083
C        -0.24429956546980    0.59648317914087   -0.01053654027323
O        -1.53992944625866    1.00697614923902   -0.01957076315914
C        -2.29940779106453   -0.12031112315547   -0.01671167971115
C        -1.53767722938433   -1.24513963510320   -0.00654233653686
C        -0.18250380986902   -0.80505117944837   -0.00204586503355
H         1.15505475597938   -2.50246501255394    0.01431072970690
H         3.17238104719346   -1.09146956438153    0.00579252519163
H         3.01048717363879    1.35932602906776   -0.01101947364619
H         0.79144514967917    2.48437493237060   -0.01923887641542
H        -3.36092269745417    0.03810467682723   -0.02480149039438
H        -1.89677599060794   -2.25618788764272   -0.00317658835393
15
 energy: -24.255208411878 gnorm: 0.004786793996 xtb: 6.4.1 (1a32961)
C         1.06861049286972   -1.42353207758700    0.00414129624155
C         2.19244618882942   -0.62700907531540    0.00198472139931
C         2.10327231742980    0.76616893624797   -0.00664135589817
C         0.88157245091879    1.40996754448903   -0.01372555762008
C        -0.24703352737100    0.60561727789790   -0.01214000796530
O        -1.54341830221755    1.00955527249012   -0.02002997211259
C        -2.29439760214136   -0.12294941704191   -0.01689774402351
C        -1.53810969141831   -1.24331880899263   -0.00626689274418
C        -0.17895335021526   -0.80152898617850   -0.00346969119264
H         1.14869812247739   -2.49933600514497    0.01159204095153
H         3.16762303540992   -1.08991266264710    0.00710362347134
H         3.00898280621475    1.35291038043065   -0.00857914605604
H         0.79852836766246    2.48410503432261   -0.02065806405817
H        -3.35644466615157    0.02313857128407   -0.02291891358368
H        -1.89300664229720   -2.25299598425485   -0.00094433680938
15
 energy: -24.255232423404 gnorm: 0.002116937172 xtb: 6.4.1 (1a32961)
C         1.06817811517525   -1.42314128992699    0.00353082615927
C         2.19322600684756   -0.62791870918725    0.00222934474906
C         2.10376239840539    0.76578915223051   -0.00645982151023
C         0.88225199579321    1.40970578257871   -0.01453516208020
C        -0.24906379407986    0.60848216337563   -0.01315148222827
O        -1.54553672240297    1.01040444750261   -0.02056427001240
C        -2.29477125801984   -0.12265158052209   -0.01585442165800
C        -1.53838563089234   -1.24284034795632   -0.00669527031087
C        -0.17827861773495   -0.79966751535346   -0.00424693688110
H         1.14436562210078   -2.49938383500536    0.01092962976547
H         3.16947571840928   -1.08903405848773    0.00858098332180
H         3.01016128963238    1.35139067287182   -0.00720585217927
H         0.80087114248616    2.48443063586487   -0.02177962087805
H        -3.35789329588057    0.01894379334131   -0.02075983180195
H        -1.88999296983949   -2.25362931132625   -0.00146811445525
15
 energy: -24.255238280510 gnorm: 0.000622428900 xtb: 6.4.1 (1a32961)
C         1.06764817276597   -1.42290431329759    0.00328525633862
C         2.19397077288455   -0.62860244762025    0.00233632382221
C         2.10399889110376    0.76537476631350   -0.00627155477254
C         0.88244536333206    1.40952781128995   -0.01445604481316
C        -0.25040875097431    0.61009641507286   -0.01345815369640
O        -1.54674899551110    1.01074958607920   -0.02038073959502
C        -2.29531193763632   -0.12212779757878   -0.01616309995834
C        -1.53822156979045   -1.24246267775801   -0.00636782959787
C        -0.17801682384097   -0.79808272811591   -0.00475068064445
H         1.14092721609694   -2.49955372078316    0.01048591008349
H         3.17088750116209   -1.08872078877008    0.00865360389724
H         3.01074847013963    1.35069890096289   -0.00696415067679
H         0.80254005453795    2.48481959732370   -0.02181300829009
H        -3.35913890282136    0.01651322337995   -0.02091121739963
H        -1.88694946144845   -2.25444582649827   -0.00067461469726
15
 energy: -24.255238623666 gnorm: 0.000235782739 xtb: 6.4.1 (1a32961)
C         1.06741715917049   -1.42285292145691    0.00366752275722
C         2.19396808013650   -0.62878299734668    0.00235086393578
C         2.10381609015419    0.76516974682200   -0.00644936134103
C         0.88235906238007    1.40961355402245   -0.01460720643093
C        -0.25057781148881    0.61030835025507   -0.01346278152729
O        -1.54679853759502    1.01066450474493   -0.02060402927554
C        -2.29540425722384   -0.12196259630232   -0.01561711173134
C        -1.53795776568138   -1.24232415984515   -0.00674856088295
C        -0.17806396398605   -0.79756077565469   -0.00451359458094
H         1.14008811020423   -2.49954589956266    0.01086580899386
H         3.17083948402602   -1.08893670459196    0.00878210179417
H         3.01051227146861    1.35072239535956   -0.00710239433170
H         0.80317462506603    2.48501208668927   -0.02192658619767
H        -3.35926747538761    0.01602493917496   -0.02032932565012
H        -1.88573507124344   -2.25466952230785   -0.00175534553154
