      -----------------------------------------------------------      
     |                   =====================                   |     
     |                           x T B                           |     
     |                   =====================                   |     
     |                         S. Grimme                         |     
     |          Mulliken Center for Theoretical Chemistry        |     
     |                    University of Bonn                     |     
      -----------------------------------------------------------      

   * xtb version 6.4.1 (1a32961) compiled by 'knkr256@seskscpg007.prim.scp' on 2021-10-19

   xtb is free software: you can redistribute it and/or modify it under
   the terms of the GNU Lesser General Public License as published by
   the Free Software Foundation, either version 3 of the License, or
   (at your option) any later version.
   
   xtb is distributed in the hope that it will be useful,
   but WITHOUT ANY WARRANTY; without even the implied warranty of
   MERCHANTABILITY or FITNESS FOR A PARTICULAR PURPOSE.  See the
   GNU Lesser General Public License for more details.
   
   Cite this work as:
   * C. Bannwarth, E. Caldeweyher, S. Ehlert, A. Hansen, P. Pracht,
     J. Seibert, S. Spicher, S. Grimme, WIREs Comput. Mol. Sci., 2020, 11,
     e01493. DOI: 10.1002/wcms.1493
   
   for GFN2-xTB:
   * C. Bannwarth, S. Ehlert and S. Grimme., J. Chem. Theory Comput., 2019,
     15, 1652-1671. DOI: 10.1021/acs.jctc.8b01176
   for GFN1-xTB:
   * S. Grimme, C. Bannwarth, P. Shushkov, J. Chem. Theory Comput., 2017,
     13, 1989-2009. DOI: 10.1021/acs.jctc.7b00118
   for GFN0-xTB:
   * P. Pracht, E. Caldeweyher, S. Ehlert, S. Grimme, ChemRxiv, 2019, preprint.
     DOI: 10.26434/chemrxiv.8326202.v1
   for GFN-FF:
   * S. Spicher and S. Grimme, Angew. Chem. Int. Ed., 2020, 59, 15665-15673.
     DOI: 10.1002/anie.202004239
   
   for ALPB and GBSA implicit solvation:
   * S. Ehlert, M. Stahn, S. Spicher, S. Grimme, J. Chem. Theory Comput.,
     2021, 17, 4250-4261. DOI: 10.1021/acs.jctc.1c00471
   
   for DFT-D4:
   * E. Caldeweyher, C. Bannwarth and S. Grimme, J. Chem. Phys., 2017,
     147, 034112. DOI: 10.1063/1.4993215
   * E. Caldeweyher, S. Ehlert, A. Hansen, H. Neugebauer, S. Spicher,
     C. Bannwarth and S. Grimme, J. Chem. Phys., 2019, 150, 154122.
     DOI: 10.1063/1.5090222
   * E. Caldeweyher, J.-M. Mewes, S. Ehlert and S. Grimme, Phys. Chem. Chem. Phys.
     2020, 22, 8499-8512. DOI: 10.1039/D0CP00502A
   
   for sTDA-xTB:
   * S. Grimme and C. Bannwarth, J. Chem. Phys., 2016, 145, 054103.
     DOI: 10.1063/1.4959605
   
   in the mass-spec context:
   * V. Asgeirsson, C. Bauer and S. Grimme, Chem. Sci., 2017, 8, 4879.
     DOI: 10.1039/c7sc00601b
   * J. Koopman and S. Grimme, ACS Omega 2019, 4, 12, 15120-15133.
     DOI: 10.1021/acsomega.9b02011
   
   for metadynamics refer to:
   * S. Grimme, J. Chem. Theory Comput., 2019, 155, 2847-2862
     DOI: 10.1021/acs.jctc.9b00143
   
   for SPH calculations refer to:
   * S. Spicher and S. Grimme, J. Chem. Theory Comput., 2021, 17, 1701-1714
     DOI: 10.1021/acs.jctc.0c01306
   
   with help from (in alphabetical order)
   P. Atkinson, C. Bannwarth, F. Bohle, G. Brandenburg, E. Caldeweyher
   M. Checinski, S. Dohm, S. Ehlert, S. Ehrlich, I. Gerasimov, J. Koopman
   C. Lavigne, S. Lehtola, F. März, M. Müller, F. Musil, H. Neugebauer
   J. Pisarek, C. Plett, P. Pracht, J. Seibert, P. Shushkov, S. Spicher
   M. Stahn, M. Steiner, T. Strunk, J. Stückrath, T. Rose, and J. Unsleber
   
 * started run on 2022/01/14 at 13:12:06.675     

           -------------------------------------------------
          |                Calculation Setup                |
           -------------------------------------------------

          program call               : xtb xtbopt.xyz --sp --alpb thf -P 6
          hostname                   : seskscpg007.prim.scp
          coordinate file            : xtbopt.xyz
          omp threads                :                     6
          number of atoms            :                   101
          number of electrons        :                   270
          charge                     :                     0
          spin                       :                   0.0
          first test random number   :      0.20409090646902

   ID    Z sym.   atoms
    1    7 N      1, 11, 93
    2    6 C      2-6, 10, 12-15, 23, 24, 28, 32, 34, 38, 44, 45, 49, 53, 55,
                  59, 65, 66, 70, 74, 76, 80, 86-89, 91, 94, 95, 98
    3    1 H      7-9, 16-18, 20, 25-27, 29-31, 35-37, 39-41, 46-48, 50-52,
                  56-58, 60-62, 67-69, 71-73, 77-79, 81-85, 92, 96, 97, 99-101
    4   77 Ir     19
    5    5 B      21, 42, 63
    6    8 O      22, 33, 43, 54, 64, 75
    7   16 S      90

molecular fragmentation (1/2 indicates fragments):
111111111111111111111111111111111111111111111111111111111111111111111111
11111111111112222222222222222
# atoms in fragment 1/2:    85    16
 fragment masses (1/2) :      730.32      148.21
CMA distance (Bohr)    :   9.433
constraining FC (au)   :  0.0500

           -------------------------------------------------
          |                 G F N 2 - x T B                 |
           -------------------------------------------------

        Reference                      10.1021/acs.jctc.8b01176
      * Hamiltonian:
        H0-scaling (s, p, d)           1.850000    2.230000    2.230000
        zeta-weighting                 0.500000
      * Dispersion:
        s8                             2.700000
        a1                             0.520000
        a2                             5.000000
        s9                             5.000000
      * Repulsion:
        kExp                           1.500000    1.000000
        rExp                           1.000000
      * Coulomb:
        alpha                          2.000000
        third order                    shell-resolved
        anisotropic                    true
        a3                             3.000000
        a5                             4.000000
        cn-shift                       1.200000
        cn-exp                         4.000000
        max-rad                        5.000000

      * Solvation model:               ALPB
        Solvent                        thf
        Parameter file                 internal GFN2-xTB/ALPB
        Dielectric constant                7.6000E+00
        Reference state                gsolv [1 M gas/solution]
        Free energy shift                  5.3248E-03 Eh       3.3414E+00 kcal/mol
        Temperature                        2.9815E+02 K
        Density                            8.8300E-01 kg/L
        Solvent mass                       7.2106E+01 g/mol
        Interaction kernel             P16
        Born radius scaling (c1)           1.7311E+00
        Born radii integrator          GBOBC
        Born offset                        0.0000E+00 a0       0.0000E+00 AA
        H-bond correction              true
        Ion screening                  false
        Surface tension                    1.0000E-05 Eh       1.5569E+01 dyn/cm
        Grid points                               230 per atom
q/qsh data taken from xtbrestart
CAMM data taken from xtbrestart

          ...................................................
          :                      SETUP                      :
          :.................................................:
          :  # basis functions                 263          :
          :  # atomic orbitals                 261          :
          :  # shells                          153          :
          :  # electrons                       270          :
          :  max. iterations                   250          :
          :  Hamiltonian                  GFN2-xTB          :
          :  restarted?                       true          :
          :  GBSA solvation                   true          :
          :  PC potential                    false          :
          :  electronic temp.          300.0000000     K    :
          :  accuracy                    1.0000000          :
          :  -> integral cutoff          0.2500000E+02      :
          :  -> integral neglect         0.1000000E-07      :
          :  -> SCF convergence          0.1000000E-05 Eh   :
          :  -> wf. convergence          0.1000000E-03 e    :
          :  Broyden damping             0.4000000          :
          ...................................................

 iter      E             dE          RMSdq      gap      omega  full diag
   1   -149.3332076 -0.149333E+03  0.256E-05    0.92       0.0  T
   2   -149.3332076  0.730722E-10  0.356E-05    0.92     279.6  T
   3   -149.3332076 -0.894147E-10  0.187E-05    0.92     530.9  T

   *** convergence criteria satisfied after 3 iterations ***

         #    Occupation            Energy/Eh            Energy/eV
      -------------------------------------------------------------
         1        2.0000           -0.7197503             -19.5854
       ...           ...                  ...                  ...
       129        2.0000           -0.3759267             -10.2295
       130        2.0000           -0.3500381              -9.5250
       131        2.0000           -0.3322445              -9.0408
       132        2.0000           -0.3244922              -8.8299
       133        2.0000           -0.3198996              -8.7049
       134        2.0000           -0.3125820              -8.5058
       135        2.0000           -0.3101629              -8.4400 (HOMO)
       136                         -0.2764905              -7.5237 (LUMO)
       137                         -0.2496257              -6.7927
       138                         -0.2470756              -6.7233
       139                         -0.2457411              -6.6870
       140                         -0.2186681              -5.9503
       ...                                ...                  ...
       261                          3.8591660             105.0133
      -------------------------------------------------------------
                  HL-Gap            0.0336724 Eh            0.9163 eV
             Fermi-level           -0.2932909 Eh           -7.9809 eV

 SCC (total)                   0 d,  0 h,  0 min,  0.096 sec
 SCC setup                      ...        0 min,  0.003 sec (  2.673%)
 Dispersion                     ...        0 min,  0.003 sec (  3.511%)
 classical contributions        ...        0 min,  0.000 sec (  0.161%)
 integral evaluation            ...        0 min,  0.012 sec ( 12.765%)
 iterations                     ...        0 min,  0.039 sec ( 40.750%)
 molecular gradient             ...        0 min,  0.038 sec ( 39.192%)
 printout                       ...        0 min,  0.001 sec (  0.861%)

         :::::::::::::::::::::::::::::::::::::::::::::::::::::
         ::                     SUMMARY                     ::
         :::::::::::::::::::::::::::::::::::::::::::::::::::::
         :: total energy            -147.432809945011 Eh    ::
         :: total w/o Gsasa/hb      -147.390737841309 Eh    ::
         :: gradient norm              0.031395494535 Eh/a0 ::
         :: HOMO-LUMO gap              0.916273051196 eV    ::
         ::.................................................::
         :: SCC energy              -149.333207576511 Eh    ::
         :: -> isotropic ES            0.247285056767 Eh    ::
         :: -> anisotropic ES          0.012047928457 Eh    ::
         :: -> anisotropic XC          0.051900654095 Eh    ::
         :: -> dispersion             -0.146283579467 Eh    ::
         :: -> Gsolv                  -0.053028632532 Eh    ::
         ::    -> Gelec               -0.010956528831 Eh    ::
         ::    -> Gsasa               -0.044349357208 Eh    ::
         ::    -> Ghb                 -0.003047561938 Eh    ::
         ::    -> Gshift               0.005324815444 Eh    ::
         :: repulsion energy           1.891540226384 Eh    ::
         :: add. restraining           0.000000000000 Eh    ::
         :: total charge               0.000000000001 e     ::
         :::::::::::::::::::::::::::::::::::::::::::::::::::::

           -------------------------------------------------
          |                Property Printout                |
           -------------------------------------------------

    * Orbital Energies and Occupations

         #    Occupation            Energy/Eh            Energy/eV
      -------------------------------------------------------------
         1        2.0000           -0.7197503             -19.5854
       ...           ...                  ...                  ...
       123        2.0000           -0.3892847             -10.5930
       124        2.0000           -0.3873976             -10.5416
       125        2.0000           -0.3855509             -10.4914
       126        2.0000           -0.3844387             -10.4611
       127        2.0000           -0.3837167             -10.4415
       128        2.0000           -0.3816515             -10.3853
       129        2.0000           -0.3759267             -10.2295
       130        2.0000           -0.3500381              -9.5250
       131        2.0000           -0.3322445              -9.0408
       132        2.0000           -0.3244922              -8.8299
       133        2.0000           -0.3198996              -8.7049
       134        2.0000           -0.3125820              -8.5058
       135        2.0000           -0.3101629              -8.4400 (HOMO)
       136                         -0.2764905              -7.5237 (LUMO)
       137                         -0.2496257              -6.7927
       138                         -0.2470756              -6.7233
       139                         -0.2457411              -6.6870
       140                         -0.2186681              -5.9503
       141                         -0.2048197              -5.5734
       142                         -0.2006042              -5.4587
       143                         -0.1895424              -5.1577
       144                         -0.1770977              -4.8191
       145                         -0.1522992              -4.1443
       146                         -0.1268168              -3.4509
       ...                                ...                  ...
       261                          3.8591660             105.0133
      -------------------------------------------------------------
                  HL-Gap            0.0336724 Eh            0.9163 eV
             Fermi-level           -0.2932909 Eh           -7.9809 eV

     #   Z          covCN         q      C6AA      α(0)
     1   7 N        2.550    -0.118    23.593     7.214
     2   6 C        2.955     0.080    26.215     8.398
     3   6 C        2.918    -0.042    29.039     8.837
     4   6 C        2.924    -0.021    28.537     8.760
     5   6 C        2.915    -0.043    29.069     8.841
     6   6 C        2.893     0.049    26.901     8.504
     7   1 H        0.926     0.052     2.298     2.371
     8   1 H        0.926     0.057     2.238     2.339
     9   1 H        0.926     0.049     2.336     2.390
    10   6 C        2.954     0.076    26.300     8.412
    11   7 N        2.558    -0.125    23.745     7.237
    12   6 C        2.890     0.043    27.039     8.525
    13   6 C        2.915    -0.044    29.103     8.846
    14   6 C        2.922    -0.024    28.614     8.772
    15   6 C        2.919    -0.044    29.099     8.846
    16   1 H        0.926     0.047     2.352     2.398
    17   1 H        0.926     0.051     2.305     2.374
    18   1 H        0.926     0.073     2.052     2.240
    19  77 Ir       5.945    -0.156   388.199    36.435
    20   1 H        0.977     0.091     1.860     2.131
    21   5 B        2.629     0.405    16.008     6.760
    22   8 O        1.638    -0.407    20.994     6.185
    23   6 C        3.835     0.130    18.451     6.111
    24   6 C        3.755    -0.122    22.885     6.821
    25   1 H        0.925     0.053     2.279     2.361
    26   1 H        0.925     0.045     2.377     2.411
    27   1 H        0.925     0.052     2.297     2.370
    28   6 C        3.754    -0.110    22.660     6.788
    29   1 H        0.925     0.048     2.339     2.392
    30   1 H        0.925     0.043     2.412     2.429
    31   1 H        0.925     0.028     2.618     2.530
    32   6 C        3.841     0.131    18.435     6.108
    33   8 O        1.637    -0.404    20.939     6.177
    34   6 C        3.755    -0.122    22.886     6.821
    35   1 H        0.925     0.053     2.287     2.365
    36   1 H        0.925     0.046     2.367     2.406
    37   1 H        0.925     0.049     2.331     2.388
    38   6 C        3.754    -0.120    22.856     6.817
    39   1 H        0.925     0.047     2.359     2.402
    40   1 H        0.925     0.053     2.282     2.362
    41   1 H        0.925     0.046     2.371     2.408
    42   5 B        2.623     0.403    16.058     6.776
    43   8 O        1.637    -0.386    20.589     6.125
    44   6 C        3.836     0.129    18.468     6.114
    45   6 C        3.755    -0.126    22.968     6.834
    46   1 H        0.925     0.055     2.264     2.353
    47   1 H        0.925     0.056     2.247     2.344
    48   1 H        0.925     0.050     2.322     2.383
    49   6 C        3.755    -0.121    22.884     6.821
    50   1 H        0.925     0.049     2.336     2.390
    51   1 H        0.925     0.046     2.373     2.409
    52   1 H        0.925     0.052     2.289     2.366
    53   6 C        3.832     0.128    18.488     6.118
    54   8 O        1.637    -0.383    20.524     6.115
    55   6 C        3.755    -0.124    22.941     6.829
    56   1 H        0.925     0.054     2.267     2.355
    57   1 H        0.925     0.054     2.266     2.354
    58   1 H        0.925     0.049     2.336     2.390
    59   6 C        3.755    -0.123    22.919     6.826
    60   1 H        0.925     0.044     2.402     2.424
    61   1 H        0.925     0.053     2.281     2.362
    62   1 H        0.925     0.050     2.314     2.379
    63   5 B        2.625     0.404    16.034     6.769
    64   8 O        1.637    -0.380    20.476     6.108
    65   6 C        3.832     0.125    18.525     6.124
    66   6 C        3.755    -0.130    23.055     6.846
    67   1 H        0.925     0.058     2.221     2.330
    68   1 H        0.925     0.054     2.272     2.357
    69   1 H        0.925     0.050     2.315     2.379
    70   6 C        3.755    -0.129    23.035     6.844
    71   1 H        0.925     0.060     2.195     2.317
    72   1 H        0.925     0.051     2.309     2.376
    73   1 H        0.925     0.052     2.295     2.369
    74   6 C        3.829     0.127    18.492     6.119
    75   8 O        1.637    -0.380    20.485     6.109
    76   6 C        3.755    -0.124    22.936     6.829
    77   1 H        0.925     0.051     2.305     2.374
    78   1 H        0.925     0.054     2.269     2.356
    79   1 H        0.925     0.055     2.263     2.352
    80   6 C        3.755    -0.122    22.891     6.822
    81   1 H        0.925     0.040     2.443     2.444
    82   1 H        0.925     0.049     2.331     2.388
    83   1 H        0.925     0.055     2.258     2.350
    84   1 H        0.926     0.055     2.261     2.351
    85   1 H        0.926     0.051     2.311     2.377
    86   6 C        2.835    -0.035    28.865     8.804
    87   6 C        2.995     0.020    27.543     8.609
    88   6 C        2.930    -0.043    29.080     8.844
    89   6 C        3.202     0.065    25.989     8.306
    90  16 S        2.237    -0.133   146.631    20.381
    91   6 C        2.918    -0.040    28.990     8.829
    92   1 H        0.926     0.047     2.358     2.401
    93   7 N        1.933    -0.270    27.855     7.826
    94   6 C        2.914    -0.056    29.399     8.891
    95   6 C        3.006     0.128    25.178     8.231
    96   1 H        0.926     0.039     2.461     2.453
    97   1 H        0.926     0.049     2.338     2.391
    98   6 C        3.773    -0.133    23.083     6.846
    99   1 H        0.925     0.075     2.031     2.229
   100   1 H        0.925     0.082     1.959     2.189
   101   1 H        0.925     0.076     2.016     2.221

 Mol. C6AA /au·bohr⁶  :     115691.879786
 Mol. C8AA /au·bohr⁸  :    3166075.893310
 Mol. α(0) /au        :        529.491808


Wiberg/Mayer (AO) data.
largest (>0.10) Wiberg bond orders for each atom

 ---------------------------------------------------------------------------
     #   Z sym  total        # sym  WBO       # sym  WBO       # sym  WBO
 ---------------------------------------------------------------------------
     1   7 N    3.405 --     6 C    1.391     2 C    1.313    19 Ir   0.438
     2   6 C    3.979 --     3 C    1.350     1 N    1.313    10 C    1.089
     3   6 C    3.987 --     4 C    1.481     2 C    1.350     9 H    0.962
                             6 C    0.106
     4   6 C    3.985 --     3 C    1.481     5 C    1.385    84 H    0.969
     5   6 C    3.978 --     6 C    1.458     4 C    1.385     8 H    0.968
     6   6 C    3.978 --     5 C    1.458     1 N    1.391     7 H    0.958
                             3 C    0.106
     7   1 H    0.997 --     6 C    0.958
     8   1 H    0.996 --     5 C    0.968
     9   1 H    0.997 --     3 C    0.962
    10   6 C    3.978 --    15 C    1.357    11 N    1.302     2 C    1.089
    11   7 N    3.408 --    12 C    1.386    10 C    1.302    19 Ir   0.436
    12   6 C    3.974 --    13 C    1.456    11 N    1.386    18 H    0.949
                            15 C    0.104
    13   6 C    3.981 --    12 C    1.456    14 C    1.388    17 H    0.969
    14   6 C    3.982 --    15 C    1.475    13 C    1.388    85 H    0.969
    15   6 C    3.988 --    14 C    1.475    10 C    1.357    16 H    0.962
                            12 C    0.104
    16   1 H    0.997 --    15 C    0.962
    17   1 H    0.997 --    13 C    0.969
    18   1 H    0.994 --    12 C    0.949
    19  77 Ir   5.177 --    63 B    0.861    42 B    0.859    21 B    0.727
                            86 C    0.589    20 H    0.537     1 N    0.438
                            11 N    0.436
    20   1 H    0.989 --    19 Ir   0.537    86 C    0.346
    21   5 B    3.276 --    33 O    1.112    22 O    1.095    19 Ir   0.727
    22   8 O    2.194 --    21 B    1.095    23 C    0.942
    23   6 C    3.942 --    24 C    0.996    28 C    0.990    22 O    0.942
                            32 C    0.941
    24   6 C    3.994 --    23 C    0.996    26 H    0.984    27 H    0.983
                            25 H    0.983
    25   1 H    0.997 --    24 C    0.983
    26   1 H    0.997 --    24 C    0.984
    27   1 H    0.997 --    24 C    0.983
    28   6 C    3.996 --    23 C    0.990    31 H    0.985    29 H    0.984
                            30 H    0.984
    29   1 H    0.997 --    28 C    0.984
    30   1 H    0.998 --    28 C    0.984
    31   1 H    0.999 --    28 C    0.985
    32   6 C    3.939 --    38 C    0.997    34 C    0.991    23 C    0.941
                            33 O    0.938
    33   8 O    2.201 --    21 B    1.112    32 C    0.938
    34   6 C    3.994 --    32 C    0.991    36 H    0.983    37 H    0.982
                            35 H    0.981
    35   1 H    0.997 --    34 C    0.981
    36   1 H    0.997 --    34 C    0.983
    37   1 H    0.997 --    34 C    0.982
    38   6 C    3.994 --    32 C    0.997    41 H    0.984    39 H    0.983
                            40 H    0.983
    39   1 H    0.998 --    38 C    0.983
    40   1 H    0.997 --    38 C    0.983
    41   1 H    0.997 --    38 C    0.984
    42   5 B    3.333 --    43 O    1.112    54 O    1.112    19 Ir   0.859
    43   8 O    2.222 --    42 B    1.112    44 C    0.936
    44   6 C    3.937 --    45 C    0.997    49 C    0.991    53 C    0.939
                            43 O    0.936
    45   6 C    3.993 --    44 C    0.997    48 H    0.983    46 H    0.982
                            47 H    0.982
    46   1 H    0.997 --    45 C    0.982
    47   1 H    0.997 --    45 C    0.982
    48   1 H    0.996 --    45 C    0.983
    49   6 C    3.994 --    44 C    0.991    50 H    0.983    51 H    0.982
                            52 H    0.979
    50   1 H    0.997 --    49 C    0.983
    51   1 H    0.998 --    49 C    0.982
    52   1 H    0.997 --    49 C    0.979
    53   6 C    3.937 --    55 C    0.996    59 C    0.992    44 C    0.939
                            54 O    0.934
    54   8 O    2.228 --    42 B    1.112    53 C    0.934
    55   6 C    3.993 --    53 C    0.996    58 H    0.983    57 H    0.983
                            56 H    0.982
    56   1 H    0.997 --    55 C    0.982
    57   1 H    0.997 --    55 C    0.983
    58   1 H    0.996 --    55 C    0.983
    59   6 C    3.994 --    53 C    0.992    62 H    0.983    61 H    0.983
                            60 H    0.982
    60   1 H    0.998 --    59 C    0.982
    61   1 H    0.996 --    59 C    0.983
    62   1 H    0.997 --    59 C    0.983
    63   5 B    3.361 --    75 O    1.119    64 O    1.109    19 Ir   0.861
    64   8 O    2.226 --    63 B    1.109    65 C    0.937
    65   6 C    3.937 --    70 C    0.996    66 C    0.991    74 C    0.938
                            64 O    0.937
    66   6 C    3.992 --    65 C    0.991    69 H    0.983    68 H    0.983
                            67 H    0.979
    67   1 H    0.997 --    66 C    0.979
    68   1 H    0.997 --    66 C    0.983
    69   1 H    0.996 --    66 C    0.983
    70   6 C    3.992 --    65 C    0.996    72 H    0.983    73 H    0.982
                            71 H    0.982
    71   1 H    0.996 --    70 C    0.982
    72   1 H    0.996 --    70 C    0.983
    73   1 H    0.997 --    70 C    0.982
    74   6 C    3.934 --    76 C    0.996    80 C    0.991    65 C    0.938
                            75 O    0.935
    75   8 O    2.234 --    63 B    1.119    74 C    0.935
    76   6 C    3.993 --    74 C    0.996    77 H    0.983    78 H    0.982
                            79 H    0.981
    77   1 H    0.996 --    76 C    0.983
    78   1 H    0.997 --    76 C    0.982
    79   1 H    0.997 --    76 C    0.981
    80   6 C    3.995 --    74 C    0.991    81 H    0.984    83 H    0.983
                            82 H    0.983
    81   1 H    0.998 --    80 C    0.984
    82   1 H    0.997 --    80 C    0.983
    83   1 H    0.996 --    80 C    0.983
    84   1 H    0.996 --     4 C    0.969
    85   1 H    0.996 --    14 C    0.969
    86   6 C    3.943 --    88 C    1.390    87 C    1.350    19 Ir   0.589
                            20 H    0.346
    87   6 C    3.945 --    86 C    1.350    89 C    1.268    90 S    1.087
    88   6 C    3.985 --    91 C    1.410    86 C    1.390    92 H    0.958
    89   6 C    3.972 --    94 C    1.339    87 C    1.268    93 N    1.172
    90  16 S    2.534 --    87 C    1.087    95 C    1.083    93 N    0.163
    91   6 C    3.987 --    94 C    1.463    88 C    1.410    96 H    0.969
    92   1 H    0.997 --    88 C    0.958
    93   7 N    3.119 --    95 C    1.675    89 C    1.172    90 S    0.163
    94   6 C    3.982 --    91 C    1.463    89 C    1.339    97 H    0.966
    95   6 C    3.957 --    93 N    1.675    90 S    1.083    98 C    1.041
    96   1 H    0.997 --    91 C    0.969
    97   1 H    0.996 --    94 C    0.966
    98   6 C    3.989 --    95 C    1.041   100 H    0.975   101 H    0.963
                            99 H    0.962
    99   1 H    0.991 --    98 C    0.962
   100   1 H    0.993 --    98 C    0.975
   101   1 H    0.991 --    98 C    0.963
 ---------------------------------------------------------------------------

Topologies differ in total number of bonds
Writing topology from bond orders to xtbtopo.mol

molecular dipole:
                 x           y           z       tot (Debye)
 q only:        0.054       0.438      -1.373
   full:       -0.839       0.776      -1.951       5.747
molecular quadrupole (traceless):
                xx          xy          yy          xz          yz          zz
 q only:       21.510       4.876      -2.738       3.728      14.517     -18.772
  q+dip:       23.383       3.680      -2.573       7.802      20.648     -20.810
   full:       21.465       4.548      -0.331       5.480      17.785     -21.133


           -------------------------------------------------
          | TOTAL ENERGY             -147.432809945011 Eh   |
          | GRADIENT NORM               0.031395494535 Eh/α |
          | HOMO-LUMO GAP               0.916273051196 eV   |
           -------------------------------------------------

------------------------------------------------------------------------
 * finished run on 2022/01/14 at 13:12:06.806     
------------------------------------------------------------------------
 total:
 * wall-time:     0 d,  0 h,  0 min,  0.131 sec
 *  cpu-time:     0 d,  0 h,  0 min,  0.765 sec
 * ratio c/w:     5.835 speedup
 SCF:
 * wall-time:     0 d,  0 h,  0 min,  0.098 sec
 *  cpu-time:     0 d,  0 h,  0 min,  0.581 sec
 * ratio c/w:     5.950 speedup

