111
 energy: -157.913571328048 gnorm: 0.000515871691 xtb: 6.4.0 (f63f532)
N        -0.96509999999997   -2.11530000000000   -0.24089999999999
C        -2.24699999999997   -1.69839999999999   -0.36219999999998
C        -3.14039999999998   -2.36820000000004   -1.21200000000009
C        -2.70219999999996   -3.47559999999999   -1.93050000000005
C        -1.37779999999994   -3.89880000000002   -1.78759999999988
C        -0.54289999999983   -3.18669999999998   -0.93509999999998
H         0.49810000000000   -3.45630000000000   -0.78940000000001
H        -0.99570000000000   -4.76029999999997   -2.32770000000003
H        -4.16500000000004   -2.02890000000000   -1.31830000000000
C        -2.62130000000020   -0.50949999999998    0.44099999999998
N        -1.62599999999997    0.07329999999993    1.16019999999997
C        -1.89680000000003    1.15239999999996    1.91689999999996
C        -3.17230000000000    1.70329999999998    1.99650000000002
C        -4.20510000000003    1.11739999999998    1.26269999999991
C        -3.92610000000009    0.00249999999988    0.47820000000033
H        -4.71960000000011   -0.46420000000003   -0.09519999999999
H        -3.34630000000001    2.57509999999991    2.62070000000003
H        -1.04450000000005    1.57420000000000    2.43689999999997
Ir        0.42150000000000   -0.81650000000000    0.91330000000001
H         0.87260000000001   -2.23030000000000    1.54050000000000
B         0.50670000000001    0.41560000000007   -0.81539999999994
O         0.19500000000001   -0.04700000000002   -2.09150000000006
C         0.00650000000004    1.10040000000014   -2.95429999999986
C         0.49019999999990    0.74739999999998   -4.35779999999974
H         1.51610000000007    0.37380000000000   -4.33699999999999
H         0.44730000000002    1.62240000000002   -5.01670000000003
H        -0.14740000000000   -0.03390000000004   -4.78430000000003
C        -1.50119999999995    1.39559999999993   -2.96670000000013
H        -1.75370000000000    2.21459999999994   -3.64849999999997
H        -2.03200000000001    0.49450000000005   -3.28930000000002
H        -1.85170000000006    1.65209999999996   -1.96219999999970
C         0.84229999999968    2.20669999999987   -2.22040000000006
O         0.75200000000001    1.78260000000003   -0.83690000000002
C         2.32929999999985    2.18620000000002   -2.59900000000000
H         2.74130000000001    1.18499999999999   -2.45749999999999
H         2.48869999999998    2.51300000000000   -3.63179999999999
H         2.87200000000001    2.86269999999999   -1.93199999999998
C         0.28439999999975    3.62290000000000   -2.33660000000001
H        -0.72650000000000    3.69039999999999   -1.92910000000001
H         0.92129999999998    4.31480000000001   -1.77610000000003
H         0.26429999999999    3.94809999999999   -3.38320000000003
B         1.56299999999999    0.60960000000000    1.84840000000001
O         2.92779999999999    0.55230000000001    2.15020000000000
C         3.36329999999999    1.88660000000001    2.50260000000001
C         4.53140000000000    1.78590000000007    3.47740000000001
H         4.27909999999997    1.16090000000001    4.33689999999999
H         5.39389999999998    1.33790000000002    2.97340000000000
H         4.82389999999999    2.77869999999993    3.83819999999999
C         3.79700000000000    2.56850000000004    1.19670000000000
H         4.20019999999998    3.57089999999999    1.37680000000001
H         4.56740000000000    1.95560000000000    0.72110000000000
H         2.95239999999995    2.63260000000001    0.50540000000001
C         2.05040000000002    2.50090000000001    3.09320000000000
O         1.03749999999998    1.81620000000000    2.31910000000000
C         1.89099999999997    4.00450000000001    2.88649999999999
H         1.87289999999997    4.25439999999999    1.82410000000004
H         0.94939999999998    4.34260000000001    3.33169999999999
H         2.71079999999990    4.55149999999998    3.36630000000001
C         1.82470000000000    2.13200000000001    4.56520000000000
H         1.92609999999999    1.05330000000001    4.71320000000000
H         2.52609999999997    2.65279999999999    5.22540000000005
H         0.80629999999996    2.41580000000000    4.84900000000000
B         2.27820000000003   -1.33089999999998    0.17410000000004
O         2.89460000000002   -2.57739999999999    0.38449999999998
C         4.26930000000002   -2.48200000000004   -0.07210000000013
C         5.10900000000002   -2.05379999999999    1.14010000000005
H         4.76350000000000   -1.08739999999999    1.51750000000002
H         4.98050000000002   -2.79469999999999    1.93590000000002
H         6.17420000000002   -1.99289999999997    0.89300000000000
C         4.71950000000007   -3.84660000000002   -0.58469999999998
H         4.75280000000004   -4.56129999999997    0.24420000000004
H         5.72330000000006   -3.78369999999998   -1.02009999999994
H         4.03500000000002   -4.23600000000000   -1.34169999999998
C         4.16440000000011   -1.36220000000001   -1.16300000000031
O         3.08519999999996   -0.55029999999999   -0.65400000000000
C         5.40719999999995   -0.48869999999997   -1.31550000000011
H         6.27320000000007   -1.09009999999996   -1.61529999999998
H         5.23300000000000    0.26930000000002   -2.08590000000003
H         5.64270000000000    0.02650000000002   -0.38239999999994
C         3.71800000000003   -1.89830000000001   -2.53109999999996
H         2.82530000000008   -2.52160000000000   -2.42739999999999
H         3.46090000000002   -1.05249999999999   -3.17549999999999
H         4.50570000000004   -2.48290000000002   -3.01789999999997
H        -3.38499999999993   -4.00130000000007   -2.59309999999999
H        -5.21400000000001    1.52079999999996    1.29959999999996
C         0.23590000000003   -1.68140000000000    2.96030000000006
C        -1.02597579439642   -2.03168653742625    3.43622902071111
C         1.28328534978973   -1.77000232577614    3.87931865512637
C        -1.17813653429403   -2.37084207307384    4.77027824103238
H        -1.89316312087914   -2.05941187438675    2.78973311851936
C         1.05717576661962   -2.19870044024249    5.18165800733755
H         2.29249991393433   -1.55231579009996    3.55695653065338
N        -0.17115313723828   -2.47850694858944    5.63312432347296
H        -2.15462779424182   -2.61485897618832    5.17488456845776
C         2.20268409917078   -2.42606314962201    6.13052685602716
C         2.34568926042666   -1.29448271204985    7.15631217651005
H         3.12945402016708   -2.50810173154882    5.55520414632054
H         2.03732828919175   -3.36676124568834    6.66364339358629
C         3.58533569973876   -1.50677372892172    7.98315791471364
H         1.45545210316358   -1.27934149743304    7.79157782104930
H         2.40971155256619   -0.33807843706408    6.62888422825000
C         4.77504029049062   -0.86153865573233    7.65585392129353
C         3.58102274553875   -2.39356040327597    9.05755554545363
C         5.93145120756169   -1.08805355457872    8.38823306572402
H         4.79473071307155   -0.17498502664248    6.81836432270641
C         4.73663405581638   -2.62471007879903    9.78931914493751
H         2.66356050212682   -2.90610808024864    9.32036950784230
C         5.91447221521415   -1.97124121188528    9.45757119572341
H         6.84695021165621   -0.57417123255962    8.12277877991016
H         4.71843298101514   -3.31675423686442   10.62181350083551
H         6.81592292779727   -2.15075191178066   10.02949486240819
