      -----------------------------------------------------------      
     |                   =====================                   |     
     |                           x T B                           |     
     |                   =====================                   |     
     |                         S. Grimme                         |     
     |          Mulliken Center for Theoretical Chemistry        |     
     |                    University of Bonn                     |     
      -----------------------------------------------------------      

   * xtb version 6.4.0 (f63f532) compiled by 'knkr256@seskscpg008.prim.scp' on 2021-04-09

   xtb is free software: you can redistribute it and/or modify it under
   the terms of the GNU Lesser General Public License as published by
   the Free Software Foundation, either version 3 of the License, or
   (at your option) any later version.
   
   xtb is distributed in the hope that it will be useful,
   but WITHOUT ANY WARRANTY; without even the implied warranty of
   MERCHANTABILITY or FITNESS FOR A PARTICULAR PURPOSE.  See the
   GNU Lesser General Public License for more details.
   
   Cite this work as:
   * C. Bannwarth, E. Caldeweyher, S. Ehlert, A. Hansen, P. Pracht,
     J. Seibert, S. Spicher, S. Grimme, WIREs Comput. Mol. Sci., 2020, 11,
     e01493. DOI: 10.1002/wcms.1493
   
   for GFN2-xTB:
   * C. Bannwarth, S. Ehlert and S. Grimme., J. Chem. Theory Comput., 2019,
     15, 1652-1671. DOI: 10.1021/acs.jctc.8b01176
   for GFN1-xTB:
   * S. Grimme, C. Bannwarth, P. Shushkov, J. Chem. Theory Comput., 2017,
     13, 1989-2009. DOI: 10.1021/acs.jctc.7b00118
   for GFN0-xTB:
   * P. Pracht, E. Caldeweyher, S. Ehlert, S. Grimme, ChemRxiv, 2019, preprint.
     DOI: 10.26434/chemrxiv.8326202.v1
   for GFN-FF:
   * S. Spicher and S. Grimme, Angew. Chem. Int. Ed., 2020, 59, 15665-15673.
     DOI: 10.1002/anie.202004239
   
   for DFT-D4:
   * E. Caldeweyher, C. Bannwarth and S. Grimme, J. Chem. Phys., 2017,
     147, 034112. DOI: 10.1063/1.4993215
   * E. Caldeweyher, S. Ehlert, A. Hansen, H. Neugebauer, S. Spicher,
     C. Bannwarth and S. Grimme, J. Chem. Phys., 2019, 150, 154122.
     DOI: 10.1063/1.5090222
   * E. Caldeweyher, J.-M. Mewes, S. Ehlert and S. Grimme, Phys. Chem. Chem. Phys.
     2020, 22, 8499-8512. DOI: 10.1039/D0CP00502A
   
   for sTDA-xTB:
   * S. Grimme and C. Bannwarth, J. Chem. Phys., 2016, 145, 054103.
     DOI: 10.1063/1.4959605
   
   in the mass-spec context:
   * V. Asgeirsson, C. Bauer and S. Grimme, Chem. Sci., 2017, 8, 4879.
     DOI: 10.1039/c7sc00601b
   * J. Koopman and S. Grimme, ACS Omega 2019, 4, 12, 15120-15133.
     DOI: 10.1021/acsomega.9b02011
   
   for metadynamics refer to:
   * S. Grimme, J. Chem. Theory Comput., 2019, 155, 2847-2862
     DOI: 10.1021/acs.jctc.9b00143
   
   for SPH calculations refer to:
   * S. Spicher and S. Grimme, J. Chem. Theory Comput., 2021, 17, 1701-1714
     DOI: 10.1021/acs.jctc.0c01306
   
   with help from (in alphabetical order)
   P. Atkinson, C. Bannwarth, F. Bohle, G. Brandenburg, E. Caldeweyher
   M. Checinski, S. Dohm, S. Ehlert, S. Ehrlich, I. Gerasimov, J. Koopman
   C. Lavinge, S. Lehtola, F. März, M. Müller, F. Musil, H. Neugebauer
   J. Pisarek, P. Pracht, J. Seibert, P. Shushkov, S. Spicher, M. Stahn
   T. Strunk, J. Stückrath, T. Rose, and J. Unsleber
   
 * started run on 2021/10/08 at 07:22:33.392     

           -------------------------------------------------
          |                Calculation Setup                |
           -------------------------------------------------

          program call               : xtb xtbopt.xyz --sp --alpb thf -P 6
          hostname                   : seskscpg010.prim.scp
          coordinate file            : xtbopt.xyz
          omp threads                :                     6
          number of atoms            :                   111
          number of electrons        :                   290
          charge                     :                     0
          spin                       :                   0.0
          first test random number   :      0.22651191440109

   ID    Z sym.   atoms
    1    7 N      1, 11, 93
    2    6 C      2-6, 10, 12-15, 23, 24, 28, 32, 34, 38, 44, 45, 49, 53, 55,
                  59, 65, 66, 70, 74, 76, 80, 86-89, 91, 95, 96, 99, 102-104,
                  106, 108
    3    1 H      7-9, 16-18, 20, 25-27, 29-31, 35-37, 39-41, 46-48, 50-52,
                  56-58, 60-62, 67-69, 71-73, 77-79, 81-85, 90, 92, 94, 97,
                  98, 100, 101, 105, 107, 109-111
    4   77 Ir     19
    5    5 B      21, 42, 63
    6    8 O      22, 33, 43, 54, 64, 75

molecular fragmentation (1/2 indicates fragments):
111111111111111111111111111111111111111111111111111111111111111111111111
111111111111122222222222222222222222222
# atoms in fragment 1/2:    85    26
 fragment masses (1/2) :      730.32      182.24
CMA distance (Bohr)    :  12.834
constraining FC (au)   :  0.0500

           -------------------------------------------------
          |                 G F N 2 - x T B                 |
           -------------------------------------------------

        Reference                      10.1021/acs.jctc.8b01176
      * Hamiltonian:
        H0-scaling (s, p, d)           1.850000    2.230000    2.230000
        zeta-weighting                 0.500000
      * Dispersion:
        s8                             2.700000
        a1                             0.520000
        a2                             5.000000
        s9                             5.000000
      * Repulsion:
        kExp                           1.500000    1.000000
        rExp                           1.000000
      * Coulomb:
        alpha                          2.000000
        third order                    shell-resolved
        anisotropic                    true
        a3                             3.000000
        a5                             4.000000
        cn-shift                       1.200000
        cn-exp                         4.000000
        max-rad                        5.000000

      * Solvation model:               ALPB
        Solvent                        thf
        Parameter file                 internal GFN2-xTB/ALPB
        Dielectric constant                7.6000E+00
        Reference state                gsolv [1 M gas/solution]
        Free energy shift                  5.3248E-03 Eh       3.3414E+00 kcal/mol
        Temperature                        2.9815E+02 K
        Density                            8.8300E-01 kg/L
        Solvent mass                       7.2106E+01 g/mol
        Interaction kernel             P16
        Born radius scaling (c1)           1.7311E+00
        Born radii integrator          GBOBC
        Born offset                        0.0000E+00 a0       0.0000E+00 AA
        H-bond correction              true
        Ion screening                  false
        Surface tension                    1.0000E-05 Eh       1.5569E+01 dyn/cm
        Grid points                               230 per atom
q/qsh data taken from xtbrestart
CAMM data taken from xtbrestart

          ...................................................
          :                      SETUP                      :
          :.................................................:
          :  # basis functions                 279          :
          :  # atomic orbitals                 278          :
          :  # shells                          166          :
          :  # electrons                       290          :
          :  max. iterations                   250          :
          :  Hamiltonian                  GFN2-xTB          :
          :  restarted?                       true          :
          :  GBSA solvation                   true          :
          :  PC potential                    false          :
          :  electronic temp.          300.0000000     K    :
          :  accuracy                    1.0000000          :
          :  -> integral cutoff          0.2500000E+02      :
          :  -> integral neglect         0.1000000E-07      :
          :  -> SCF convergence          0.1000000E-05 Eh   :
          :  -> wf. convergence          0.1000000E-03 e    :
          :  Broyden damping             0.4000000          :
          ...................................................

 iter      E             dE          RMSdq      gap      omega  full diag
   1   -160.0716179 -0.160072E+03  0.224E-05    0.92       0.0  T
   2   -160.0716179 -0.267164E-11  0.181E-05    0.92     525.1  T
   3   -160.0716179 -0.477485E-11  0.132E-05    0.92     721.6  T

   *** convergence criteria satisfied after 3 iterations ***

         #    Occupation            Energy/Eh            Energy/eV
      -------------------------------------------------------------
         1        2.0000           -0.6764786             -18.4079
       ...           ...                  ...                  ...
       139        2.0000           -0.3606669              -9.8142
       140        2.0000           -0.3468382              -9.4379
       141        2.0000           -0.3353990              -9.1267
       142        2.0000           -0.3258725              -8.8674
       143        2.0000           -0.3210117              -8.7352
       144        2.0000           -0.3150266              -8.5723
       145        2.0000           -0.3118106              -8.4848 (HOMO)
       146                         -0.2781772              -7.5696 (LUMO)
       147                         -0.2503344              -6.8119
       148                         -0.2476199              -6.7381
       149                         -0.2298624              -6.2549
       150                         -0.2170311              -5.9057
       ...                                ...                  ...
       278                          3.7473005             101.9692
      -------------------------------------------------------------
                  HL-Gap            0.0336334 Eh            0.9152 eV
             Fermi-level           -0.2949781 Eh           -8.0268 eV

 SCC (total)                   0 d,  0 h,  0 min,  0.122 sec
 SCC setup                      ...        0 min,  0.002 sec (  1.990%)
 Dispersion                     ...        0 min,  0.003 sec (  2.314%)
 classical contributions        ...        0 min,  0.000 sec (  0.146%)
 integral evaluation            ...        0 min,  0.034 sec ( 27.612%)
 iterations                     ...        0 min,  0.036 sec ( 29.610%)
 molecular gradient             ...        0 min,  0.046 sec ( 37.678%)
 printout                       ...        0 min,  0.001 sec (  0.604%)

         :::::::::::::::::::::::::::::::::::::::::::::::::::::
         ::                     SUMMARY                     ::
         :::::::::::::::::::::::::::::::::::::::::::::::::::::
         :: total energy            -157.926165194571 Eh    ::
         :: total w/o Gsasa/hb      -157.879596926656 Eh    ::
         :: gradient norm              0.033410799670 Eh/a0 ::
         :: HOMO-LUMO gap              0.915211071023 eV    ::
         ::.................................................::
         :: SCC energy              -160.071617861678 Eh    ::
         :: -> isotropic ES            0.244185217841 Eh    ::
         :: -> anisotropic ES          0.016196973770 Eh    ::
         :: -> anisotropic XC          0.063530882141 Eh    ::
         :: -> dispersion             -0.150222635299 Eh    ::
         :: -> Gsolv                  -0.056507236363 Eh    ::
         ::    -> Gelec               -0.009938968448 Eh    ::
         ::    -> Gsasa               -0.049322346918 Eh    ::
         ::    -> Ghb                 -0.002570736441 Eh    ::
         ::    -> Gshift               0.005324815444 Eh    ::
         :: repulsion energy           2.137292985907 Eh    ::
         :: add. restraining           0.000000000000 Eh    ::
         :: total charge               0.000000001394 e     ::
         :::::::::::::::::::::::::::::::::::::::::::::::::::::

           -------------------------------------------------
          |                Property Printout                |
           -------------------------------------------------

    * Orbital Energies and Occupations

         #    Occupation            Energy/Eh            Energy/eV
      -------------------------------------------------------------
         1        2.0000           -0.6764786             -18.4079
       ...           ...                  ...                  ...
       133        2.0000           -0.3929617             -10.6930
       134        2.0000           -0.3906035             -10.6289
       135        2.0000           -0.3883834             -10.5685
       136        2.0000           -0.3847043             -10.4683
       137        2.0000           -0.3845670             -10.4646
       138        2.0000           -0.3823131             -10.4033
       139        2.0000           -0.3606669              -9.8142
       140        2.0000           -0.3468382              -9.4379
       141        2.0000           -0.3353990              -9.1267
       142        2.0000           -0.3258725              -8.8674
       143        2.0000           -0.3210117              -8.7352
       144        2.0000           -0.3150266              -8.5723
       145        2.0000           -0.3118106              -8.4848 (HOMO)
       146                         -0.2781772              -7.5696 (LUMO)
       147                         -0.2503344              -6.8119
       148                         -0.2476199              -6.7381
       149                         -0.2298624              -6.2549
       150                         -0.2170311              -5.9057
       151                         -0.2120309              -5.7697
       152                         -0.2083848              -5.6704
       153                         -0.2064866              -5.6188
       154                         -0.1899773              -5.1695
       155                         -0.1520247              -4.1368
       156                         -0.1286265              -3.5001
       ...                                ...                  ...
       278                          3.7473005             101.9692
      -------------------------------------------------------------
                  HL-Gap            0.0336334 Eh            0.9152 eV
             Fermi-level           -0.2949781 Eh           -8.0268 eV

     #   Z          covCN         q      C6AA      α(0)
     1   7 N        2.555    -0.121    23.670     7.225
     2   6 C        2.955     0.077    26.283     8.409
     3   6 C        2.918    -0.043    29.077     8.843
     4   6 C        2.923    -0.022    28.557     8.764
     5   6 C        2.915    -0.044    29.090     8.844
     6   6 C        2.892     0.048    26.917     8.506
     7   1 H        0.926     0.051     2.302     2.373
     8   1 H        0.926     0.056     2.242     2.341
     9   1 H        0.926     0.048     2.345     2.394
    10   6 C        2.954     0.073    26.358     8.421
    11   7 N        2.558    -0.126    23.773     7.241
    12   6 C        2.890     0.042    27.068     8.530
    13   6 C        2.915    -0.045    29.114     8.848
    14   6 C        2.922    -0.024    28.611     8.772
    15   6 C        2.919    -0.045    29.108     8.847
    16   1 H        0.926     0.046     2.370     2.408
    17   1 H        0.926     0.052     2.298     2.371
    18   1 H        0.926     0.075     2.027     2.226
    19  77 Ir       5.949    -0.153   387.860    36.419
    20   1 H        0.977     0.082     1.950     2.182
    21   5 B        2.628     0.404    16.020     6.764
    22   8 O        1.638    -0.409    21.038     6.191
    23   6 C        3.835     0.130    18.446     6.110
    24   6 C        3.755    -0.121    22.880     6.820
    25   1 H        0.925     0.053     2.280     2.361
    26   1 H        0.925     0.045     2.384     2.414
    27   1 H        0.925     0.051     2.307     2.375
    28   6 C        3.754    -0.109    22.639     6.785
    29   1 H        0.925     0.048     2.350     2.397
    30   1 H        0.925     0.041     2.433     2.439
    31   1 H        0.925     0.028     2.614     2.528
    32   6 C        3.840     0.131    18.435     6.108
    33   8 O        1.637    -0.403    20.911     6.173
    34   6 C        3.755    -0.120    22.856     6.817
    35   1 H        0.925     0.050     2.324     2.384
    36   1 H        0.925     0.046     2.365     2.405
    37   1 H        0.925     0.050     2.325     2.385
    38   6 C        3.754    -0.120    22.852     6.816
    39   1 H        0.925     0.047     2.353     2.399
    40   1 H        0.925     0.053     2.281     2.362
    41   1 H        0.925     0.045     2.379     2.412
    42   5 B        2.626     0.403    16.048     6.772
    43   8 O        1.637    -0.382    20.513     6.114
    44   6 C        3.837     0.129    18.470     6.114
    45   6 C        3.755    -0.123    22.921     6.827
    46   1 H        0.925     0.051     2.302     2.373
    47   1 H        0.925     0.057     2.233     2.337
    48   1 H        0.925     0.050     2.322     2.383
    49   6 C        3.755    -0.122    22.893     6.822
    50   1 H        0.925     0.049     2.330     2.387
    51   1 H        0.925     0.045     2.383     2.414
    52   1 H        0.925     0.053     2.283     2.363
    53   6 C        3.833     0.128    18.478     6.116
    54   8 O        1.637    -0.383    20.541     6.118
    55   6 C        3.755    -0.124    22.942     6.830
    56   1 H        0.925     0.055     2.263     2.353
    57   1 H        0.925     0.054     2.265     2.353
    58   1 H        0.925     0.049     2.334     2.389
    59   6 C        3.755    -0.119    22.840     6.815
    60   1 H        0.925     0.040     2.447     2.446
    61   1 H        0.925     0.052     2.293     2.368
    62   1 H        0.925     0.050     2.317     2.380
    63   5 B        2.626     0.404    16.034     6.768
    64   8 O        1.637    -0.377    20.413     6.099
    65   6 C        3.833     0.125    18.523     6.123
    66   6 C        3.755    -0.129    23.041     6.844
    67   1 H        0.925     0.058     2.218     2.329
    68   1 H        0.925     0.054     2.270     2.356
    69   1 H        0.925     0.050     2.319     2.381
    70   6 C        3.755    -0.129    23.038     6.844
    71   1 H        0.925     0.061     2.191     2.315
    72   1 H        0.925     0.051     2.308     2.376
    73   1 H        0.925     0.052     2.296     2.369
    74   6 C        3.829     0.127    18.499     6.120
    75   8 O        1.637    -0.382    20.506     6.113
    76   6 C        3.755    -0.124    22.935     6.829
    77   1 H        0.925     0.051     2.306     2.375
    78   1 H        0.925     0.054     2.274     2.358
    79   1 H        0.925     0.055     2.264     2.353
    80   6 C        3.755    -0.122    22.899     6.823
    81   1 H        0.925     0.040     2.454     2.450
    82   1 H        0.925     0.050     2.317     2.380
    83   1 H        0.925     0.055     2.260     2.351
    84   1 H        0.926     0.054     2.272     2.357
    85   1 H        0.926     0.051     2.313     2.378
    86   6 C        2.834    -0.009    28.231     8.707
    87   6 C        2.920    -0.046    29.141     8.852
    88   6 C        2.922    -0.059    29.470     8.902
    89   6 C        2.907     0.049    26.893     8.503
    90   1 H        0.926     0.022     2.704     2.571
    91   6 C        2.956     0.092    25.944     8.354
    92   1 H        0.926     0.044     2.392     2.418
    93   7 N        1.840    -0.268    27.819     7.816
    94   1 H        0.925     0.027     2.632     2.537
    95   6 C        3.812    -0.067    21.781     6.643
    96   6 C        3.808    -0.060    21.646     6.623
    97   1 H        0.924     0.042     2.421     2.433
    98   1 H        0.924     0.057     2.231     2.336
    99   6 C        2.971     0.014    27.707     8.634
   100   1 H        0.924     0.050     2.322     2.383
   101   1 H        0.924     0.037     2.490     2.468
   102   6 C        2.925    -0.041    29.009     8.833
   103   6 C        2.925    -0.041    29.025     8.835
   104   6 C        2.918    -0.036    28.884     8.813
   105   1 H        0.926     0.031     2.570     2.507
   106   6 C        2.919    -0.035    28.871     8.811
   107   1 H        0.926     0.034     2.523     2.484
   108   6 C        2.920    -0.038    28.954     8.824
   109   1 H        0.926     0.033     2.549     2.497
   110   1 H        0.926     0.031     2.569     2.506
   111   1 H        0.926     0.030     2.584     2.514

 Mol. C6AA /au·bohr⁶  :     132765.208385
 Mol. C8AA /au·bohr⁸  :    3499759.550819
 Mol. α(0) /au        :        566.981251


Wiberg/Mayer (AO) data.
largest (>0.10) Wiberg bond orders for each atom

 ---------------------------------------------------------------------------
     #   Z sym  total        # sym  WBO       # sym  WBO       # sym  WBO
 ---------------------------------------------------------------------------
     1   7 N    3.406 --     6 C    1.388     2 C    1.311    19 Ir   0.445
     2   6 C    3.978 --     3 C    1.346     1 N    1.311    10 C    1.093
     3   6 C    3.987 --     4 C    1.486     2 C    1.346     9 H    0.962
                             6 C    0.106
     4   6 C    3.984 --     3 C    1.486     5 C    1.380    84 H    0.969
     5   6 C    3.978 --     6 C    1.462     4 C    1.380     8 H    0.968
     6   6 C    3.978 --     5 C    1.462     1 N    1.388     7 H    0.957
                             3 C    0.106
     7   1 H    0.997 --     6 C    0.957
     8   1 H    0.996 --     5 C    0.968
     9   1 H    0.997 --     3 C    0.962
    10   6 C    3.978 --    15 C    1.352    11 N    1.301     2 C    1.093
    11   7 N    3.408 --    12 C    1.383    10 C    1.301    19 Ir   0.435
    12   6 C    3.973 --    13 C    1.460    11 N    1.383    18 H    0.948
                            15 C    0.105
    13   6 C    3.981 --    12 C    1.460    14 C    1.383    17 H    0.969
    14   6 C    3.981 --    15 C    1.480    13 C    1.383    85 H    0.969
    15   6 C    3.989 --    14 C    1.480    10 C    1.352    16 H    0.962
                            12 C    0.105
    16   1 H    0.997 --    15 C    0.962
    17   1 H    0.996 --    13 C    0.969
    18   1 H    0.994 --    12 C    0.948
    19  77 Ir   5.192 --    63 B    0.863    42 B    0.856    21 B    0.712
                            86 C    0.606    20 H    0.541     1 N    0.445
                            11 N    0.435
    20   1 H    0.991 --    19 Ir   0.541    86 C    0.334
    21   5 B    3.272 --    33 O    1.113    22 O    1.092    19 Ir   0.712
    22   8 O    2.190 --    21 B    1.092    23 C    0.942
    23   6 C    3.943 --    24 C    0.997    28 C    0.990    22 O    0.942
                            32 C    0.941
    24   6 C    3.994 --    23 C    0.997    26 H    0.984    27 H    0.983
                            25 H    0.983
    25   1 H    0.997 --    24 C    0.983
    26   1 H    0.997 --    24 C    0.984
    27   1 H    0.997 --    24 C    0.983
    28   6 C    3.997 --    23 C    0.990    31 H    0.985    29 H    0.984
                            30 H    0.984
    29   1 H    0.997 --    28 C    0.984
    30   1 H    0.998 --    28 C    0.984
    31   1 H    0.999 --    28 C    0.985
    32   6 C    3.940 --    38 C    0.997    34 C    0.991    23 C    0.941
                            33 O    0.939
    33   8 O    2.203 --    21 B    1.113    32 C    0.939
    34   6 C    3.994 --    32 C    0.991    36 H    0.984    37 H    0.982
                            35 H    0.982
    35   1 H    0.998 --    34 C    0.982
    36   1 H    0.997 --    34 C    0.984
    37   1 H    0.997 --    34 C    0.982
    38   6 C    3.994 --    32 C    0.997    41 H    0.984    39 H    0.983
                            40 H    0.983
    39   1 H    0.998 --    38 C    0.983
    40   1 H    0.997 --    38 C    0.983
    41   1 H    0.997 --    38 C    0.984
    42   5 B    3.336 --    43 O    1.117    54 O    1.108    19 Ir   0.856
    43   8 O    2.227 --    42 B    1.117    44 C    0.936
    44   6 C    3.937 --    45 C    0.997    49 C    0.991    53 C    0.939
                            43 O    0.936
    45   6 C    3.993 --    44 C    0.997    48 H    0.983    46 H    0.982
                            47 H    0.982
    46   1 H    0.997 --    45 C    0.982
    47   1 H    0.996 --    45 C    0.982
    48   1 H    0.996 --    45 C    0.983
    49   6 C    3.994 --    44 C    0.991    50 H    0.983    51 H    0.982
                            52 H    0.980
    50   1 H    0.997 --    49 C    0.983
    51   1 H    0.998 --    49 C    0.982
    52   1 H    0.997 --    49 C    0.980
    53   6 C    3.937 --    55 C    0.996    59 C    0.992    44 C    0.939
                            54 O    0.934
    54   8 O    2.227 --    42 B    1.108    53 C    0.934
    55   6 C    3.992 --    53 C    0.996    58 H    0.983    57 H    0.983
                            56 H    0.982
    56   1 H    0.997 --    55 C    0.982
    57   1 H    0.997 --    55 C    0.983
    58   1 H    0.996 --    55 C    0.983
    59   6 C    3.994 --    53 C    0.992    61 H    0.983    62 H    0.983
                            60 H    0.979
    60   1 H    0.998 --    59 C    0.979
    61   1 H    0.996 --    59 C    0.983
    62   1 H    0.997 --    59 C    0.983
    63   5 B    3.361 --    75 O    1.117    64 O    1.115    19 Ir   0.863
    64   8 O    2.230 --    63 B    1.115    65 C    0.937
    65   6 C    3.937 --    70 C    0.996    66 C    0.991    74 C    0.938
                            64 O    0.937
    66   6 C    3.992 --    65 C    0.991    69 H    0.983    68 H    0.983
                            67 H    0.979
    67   1 H    0.997 --    66 C    0.979
    68   1 H    0.997 --    66 C    0.983
    69   1 H    0.996 --    66 C    0.983
    70   6 C    3.992 --    65 C    0.996    72 H    0.983    73 H    0.982
                            71 H    0.982
    71   1 H    0.996 --    70 C    0.982
    72   1 H    0.996 --    70 C    0.983
    73   1 H    0.997 --    70 C    0.982
    74   6 C    3.935 --    76 C    0.996    80 C    0.991    65 C    0.938
                            75 O    0.935
    75   8 O    2.232 --    63 B    1.117    74 C    0.935
    76   6 C    3.993 --    74 C    0.996    77 H    0.983    78 H    0.982
                            79 H    0.982
    77   1 H    0.996 --    76 C    0.983
    78   1 H    0.997 --    76 C    0.982
    79   1 H    0.997 --    76 C    0.982
    80   6 C    3.995 --    74 C    0.991    81 H    0.984    83 H    0.983
                            82 H    0.983
    81   1 H    0.998 --    80 C    0.984
    82   1 H    0.997 --    80 C    0.983
    83   1 H    0.996 --    80 C    0.983
    84   1 H    0.996 --     4 C    0.969
    85   1 H    0.996 --    14 C    0.969
    86   6 C    3.942 --    88 C    1.379    87 C    1.378    19 Ir   0.606
                            20 H    0.334
    87   6 C    3.988 --    89 C    1.427    86 C    1.378    90 H    0.964
    88   6 C    3.986 --    91 C    1.416    86 C    1.379    92 H    0.960
                            89 C    0.104
    89   6 C    3.981 --    93 N    1.435    87 C    1.427    94 H    0.962
                            88 C    0.104
    90   1 H    0.999 --    87 C    0.964
    91   6 C    3.974 --    88 C    1.416    93 N    1.383    95 C    1.005
    92   1 H    0.997 --    88 C    0.960
    93   7 N    3.047 --    89 C    1.435    91 C    1.383
    94   1 H    0.998 --    89 C    0.962
    95   6 C    3.993 --    91 C    1.005    97 H    0.975    96 C    0.969
                            98 H    0.967
    96   6 C    3.994 --    99 C    1.013   100 H    0.973    95 C    0.969
                           101 H    0.969
    97   1 H    0.998 --    95 C    0.975
    98   1 H    0.996 --    95 C    0.967
    99   6 C    3.988 --   103 C    1.411   102 C    1.410    96 C    1.013
                           108 C    0.110
   100   1 H    0.997 --    96 C    0.973
   101   1 H    0.998 --    96 C    0.969
   102   6 C    3.991 --   104 C    1.447    99 C    1.410   105 H    0.969
                           106 C    0.111
   103   6 C    3.991 --   106 C    1.446    99 C    1.411   107 H    0.969
                           104 C    0.111
   104   6 C    3.992 --   102 C    1.447   108 C    1.437   109 H    0.971
                           103 C    0.111
   105   1 H    0.999 --   102 C    0.969
   106   6 C    3.992 --   103 C    1.446   108 C    1.438   110 H    0.971
                           102 C    0.111
   107   1 H    0.999 --   103 C    0.969
   108   6 C    3.991 --   106 C    1.438   104 C    1.437   111 H    0.971
                            99 C    0.110
   109   1 H    0.999 --   104 C    0.971
   110   1 H    0.999 --   106 C    0.971
   111   1 H    0.999 --   108 C    0.971
 ---------------------------------------------------------------------------

Topologies differ in total number of bonds
Writing topology from bond orders to xtbtopo.mol

molecular dipole:
                 x           y           z       tot (Debye)
 q only:        0.303       0.569      -1.536
   full:       -0.881       0.852      -2.464       6.995
molecular quadrupole (traceless):
                xx          xy          yy          xz          yz          zz
 q only:       18.977       0.372       1.964       3.796      16.985     -20.941
  q+dip:       28.451       2.389       1.029       3.052      21.533     -29.480
   full:       24.255       2.849       5.470       1.320      20.904     -29.725


           -------------------------------------------------
          | TOTAL ENERGY             -157.926165194571 Eh   |
          | GRADIENT NORM               0.033410799670 Eh/α |
          | HOMO-LUMO GAP               0.915211071023 eV   |
           -------------------------------------------------

------------------------------------------------------------------------
 * finished run on 2021/10/08 at 07:22:33.561     
------------------------------------------------------------------------
 total:
 * wall-time:     0 d,  0 h,  0 min,  0.169 sec
 *  cpu-time:     0 d,  0 h,  0 min,  0.991 sec
 * ratio c/w:     5.860 speedup
 SCF:
 * wall-time:     0 d,  0 h,  0 min,  0.123 sec
 *  cpu-time:     0 d,  0 h,  0 min,  0.736 sec
 * ratio c/w:     5.975 speedup

