111
 energy: -157.914093447253 gnorm: 0.075238517115 xtb: 6.4.0 (f63f532)
N        -0.96509999999997   -2.11530000000000   -0.24089999999999
C        -2.24699999999997   -1.69839999999999   -0.36219999999998
C        -3.14039999999998   -2.36820000000004   -1.21200000000009
C        -2.70219999999996   -3.47559999999999   -1.93050000000005
C        -1.37779999999994   -3.89880000000002   -1.78759999999988
C        -0.54289999999983   -3.18669999999998   -0.93509999999998
H         0.49810000000000   -3.45630000000000   -0.78940000000001
H        -0.99570000000000   -4.76029999999997   -2.32770000000003
H        -4.16500000000004   -2.02890000000000   -1.31830000000000
C        -2.62130000000020   -0.50949999999998    0.44099999999998
N        -1.62599999999997    0.07329999999993    1.16019999999997
C        -1.89680000000003    1.15239999999996    1.91689999999996
C        -3.17230000000000    1.70329999999998    1.99650000000002
C        -4.20510000000003    1.11739999999998    1.26269999999991
C        -3.92610000000009    0.00249999999988    0.47820000000033
H        -4.71960000000011   -0.46420000000003   -0.09519999999999
H        -3.34630000000001    2.57509999999991    2.62070000000003
H        -1.04450000000005    1.57420000000000    2.43689999999997
Ir        0.42150000000000   -0.81650000000000    0.91330000000001
H         0.87260000000001   -2.23030000000000    1.54050000000000
B         0.50670000000001    0.41560000000007   -0.81539999999994
O         0.19500000000001   -0.04700000000002   -2.09150000000006
C         0.00650000000004    1.10040000000014   -2.95429999999986
C         0.49019999999990    0.74739999999998   -4.35779999999974
H         1.51610000000007    0.37380000000000   -4.33699999999999
H         0.44730000000002    1.62240000000002   -5.01670000000003
H        -0.14740000000000   -0.03390000000004   -4.78430000000003
C        -1.50119999999995    1.39559999999993   -2.96670000000013
H        -1.75370000000000    2.21459999999994   -3.64849999999997
H        -2.03200000000001    0.49450000000005   -3.28930000000002
H        -1.85170000000006    1.65209999999996   -1.96219999999970
C         0.84229999999968    2.20669999999987   -2.22040000000006
O         0.75200000000001    1.78260000000003   -0.83690000000002
C         2.32929999999985    2.18620000000002   -2.59900000000000
H         2.74130000000001    1.18499999999999   -2.45749999999999
H         2.48869999999998    2.51300000000000   -3.63179999999999
H         2.87200000000001    2.86269999999999   -1.93199999999998
C         0.28439999999975    3.62290000000000   -2.33660000000001
H        -0.72650000000000    3.69039999999999   -1.92910000000001
H         0.92129999999998    4.31480000000001   -1.77610000000003
H         0.26429999999999    3.94809999999999   -3.38320000000003
B         1.56299999999999    0.60960000000000    1.84840000000001
O         2.92779999999999    0.55230000000001    2.15020000000000
C         3.36329999999999    1.88660000000001    2.50260000000001
C         4.53140000000000    1.78590000000007    3.47740000000001
H         4.27909999999997    1.16090000000001    4.33689999999999
H         5.39389999999998    1.33790000000002    2.97340000000000
H         4.82389999999999    2.77869999999993    3.83819999999999
C         3.79700000000000    2.56850000000004    1.19670000000000
H         4.20019999999998    3.57089999999999    1.37680000000001
H         4.56740000000000    1.95560000000000    0.72110000000000
H         2.95239999999995    2.63260000000001    0.50540000000001
C         2.05040000000002    2.50090000000001    3.09320000000000
O         1.03749999999998    1.81620000000000    2.31910000000000
C         1.89099999999997    4.00450000000001    2.88649999999999
H         1.87289999999997    4.25439999999999    1.82410000000004
H         0.94939999999998    4.34260000000001    3.33169999999999
H         2.71079999999990    4.55149999999998    3.36630000000001
C         1.82470000000000    2.13200000000001    4.56520000000000
H         1.92609999999999    1.05330000000001    4.71320000000000
H         2.52609999999997    2.65279999999999    5.22540000000005
H         0.80629999999996    2.41580000000000    4.84900000000000
B         2.27820000000003   -1.33089999999998    0.17410000000004
O         2.89460000000002   -2.57739999999999    0.38449999999998
C         4.26930000000002   -2.48200000000004   -0.07210000000013
C         5.10900000000002   -2.05379999999999    1.14010000000005
H         4.76350000000000   -1.08739999999999    1.51750000000002
H         4.98050000000002   -2.79469999999999    1.93590000000002
H         6.17420000000002   -1.99289999999997    0.89300000000000
C         4.71950000000007   -3.84660000000002   -0.58469999999998
H         4.75280000000004   -4.56129999999997    0.24420000000004
H         5.72330000000006   -3.78369999999998   -1.02009999999994
H         4.03500000000002   -4.23600000000000   -1.34169999999998
C         4.16440000000011   -1.36220000000001   -1.16300000000031
O         3.08519999999996   -0.55029999999999   -0.65400000000000
C         5.40719999999995   -0.48869999999997   -1.31550000000011
H         6.27320000000007   -1.09009999999996   -1.61529999999998
H         5.23300000000000    0.26930000000002   -2.08590000000003
H         5.64270000000000    0.02650000000002   -0.38239999999994
C         3.71800000000003   -1.89830000000001   -2.53109999999996
H         2.82530000000008   -2.52160000000000   -2.42739999999999
H         3.46090000000002   -1.05249999999999   -3.17549999999999
H         4.50570000000004   -2.48290000000002   -3.01789999999997
H        -3.38499999999993   -4.00130000000007   -2.59309999999999
H        -5.21400000000001    1.52079999999996    1.29959999999996
C         0.23590000000003   -1.68140000000000    2.96030000000006
C        -1.02597579439642   -2.03168653742625    3.43622902071111
C         1.28328534978973   -1.77000232577614    3.87931865512637
C        -1.17813653429403   -2.37084207307384    4.77027824103238
H        -1.89316312087914   -2.05941187438675    2.78973311851936
C         1.05717576661962   -2.19870044024249    5.18165800733755
H         2.29249991393433   -1.55231579009996    3.55695653065338
N        -0.17115313723828   -2.47850694858944    5.63312432347296
H        -2.15462779424182   -2.61485897618832    5.17488456845776
C         2.20268409917078   -2.42606314962201    6.13052685602716
C         2.34568926042666   -1.29448271204985    7.15631217651005
H         3.12945402016708   -2.50810173154882    5.55520414632054
H         2.03732828919175   -3.36676124568834    6.66364339358629
C         3.58533569973876   -1.50677372892172    7.98315791471364
H         1.45545210316358   -1.27934149743304    7.79157782104930
H         2.40971155256619   -0.33807843706408    6.62888422825000
C         4.77504029049062   -0.86153865573233    7.65585392129353
C         3.58102274553875   -2.39356040327597    9.05755554545363
C         5.93145120756169   -1.08805355457872    8.38823306572402
H         4.79473071307155   -0.17498502664248    6.81836432270641
C         4.73663405581638   -2.62471007879903    9.78931914493751
H         2.66356050212682   -2.90610808024864    9.32036950784230
C         5.91447221521415   -1.97124121188528    9.45757119572341
H         6.84695021165621   -0.57417123255962    8.12277877991016
H         4.71843298101514   -3.31675423686442   10.62181350083551
H         6.81592292779727   -2.15075191178066   10.02949486240819
111
 energy: -157.920544370999 gnorm: 0.046091683901 xtb: 6.4.0 (f63f532)
N        -0.96108674278378   -2.09846917725216   -0.25372081977996
C        -2.23964571592297   -1.68947341530797   -0.36545641658873
C        -3.13475496271454   -2.36240357976939   -1.20600814870520
C        -2.70423168409243   -3.46397342439619   -1.92143096915262
C        -1.38430658622306   -3.88277777516986   -1.78209709341542
C        -0.55382397373676   -3.16728082073160   -0.94149211944350
H         0.47985302705607   -3.44739433053835   -0.79158792963010
H        -1.00785338329657   -4.74296219448913   -2.31697581303980
H        -4.15529291392081   -2.02715407446357   -1.30993492829519
C        -2.61094208789312   -0.51183845235138    0.43353450057545
N        -1.61826832921270    0.06905961240725    1.14433069703082
C        -1.89718734725473    1.13984491848431    1.89186247132430
C        -3.16445601045755    1.68796616726961    1.98111526094057
C        -4.19585362161679    1.10346125811212    1.25474834133967
C        -3.91424730847495   -0.00277370100897    0.47417414364909
H        -4.70569327917562   -0.46672232809794   -0.09414946994682
H        -3.33961371498809    2.55057229811582    2.60856059144483
H        -1.05441560013847    1.55805307670303    2.42134661191405
Ir        0.42150000000000   -0.81650000000000    0.91330000000001
H         0.87260000000001   -2.23030000000000    1.54050000000000
B         0.48878040949979    0.42644866718534   -0.78881021205995
O         0.17513725945342   -0.03458206968052   -2.06082537139396
C         0.01094241713696    1.09635409990139   -2.94300079281023
C         0.49033574778536    0.74615878408533   -4.34769589595861
H         1.50931114905962    0.36949271455439   -4.32634257215965
H         0.44555718965717    1.62144521528825   -4.99636899459620
H        -0.14842403544119   -0.02975374552341   -4.76820134021802
C        -1.49316781790316    1.39871487320918   -2.97016199340378
H        -1.73121379876936    2.21138586878163   -3.65473887384802
H        -2.02307551217747    0.50152455653579   -3.29009897192254
H        -1.84028216356045    1.65401099238672   -1.96879653344928
C         0.83239356287949    2.20691624795723   -2.21244697308817
O         0.75542041789372    1.78161534730589   -0.83478005518407
C         2.31492078901042    2.19029432753471   -2.59980627209552
H         2.71917136436036    1.19121371884428   -2.44958159975334
H         2.46650057613522    2.51133209822638   -3.62964587388110
H         2.85716306829482    2.86531830606043   -1.93869963696384
C         0.28087123119869    3.62286393411974   -2.34028648805755
H        -0.72248443073023    3.69196381208581   -1.92817372183236
H         0.92040380155806    4.30670834280280   -1.78376437109878
H         0.26341326147155    3.93481370851364   -3.38462467345508
B         1.56371105070960    0.61453326588760    1.86056140739773
O         2.92435972395906    0.56378341943069    2.13995604244513
C         3.36258224575999    1.88613629269356    2.50990721097343
C         4.53220190564661    1.78919672971277    3.48069446049774
H         4.27846805654247    1.16119110424120    4.33073321070396
H         5.38749092882847    1.34414219270738    2.97400473990208
H         4.81472278607733    2.77943059055111    3.83706745233912
C         3.79873022067724    2.57298213253526    1.21140209145887
H         4.19992917706187    3.56875437466090    1.39533546357567
H         4.56293496720539    1.96160493649606    0.73454259521594
H         2.95062050488784    2.62538938989112    0.53002907477438
C         2.05257938275134    2.50525994910783    3.08927348040560
O         1.03995335252232    1.80804288419949    2.33718548783715
C         1.89360591734248    4.00725674622319    2.88855904077185
H         1.86822689198187    4.25043100707963    1.83018980967274
H         0.95613897722310    4.33638885654054    3.33509546356474
H         2.71401883547286    4.54361247665873    3.36473967233460
C         1.83116287599443    2.14138621406865    4.56132565545664
H         1.93184330414060    1.06490181740275    4.69768277248355
H         2.53233128617846    2.66256300623844    5.21091435794822
H         0.81667331363162    2.41902434868054    4.84666155467288
B         2.27820000000003   -1.33089999999998    0.17410000000004
O         2.90110056509589   -2.56125988492185    0.39217345861105
C         4.26551791363961   -2.48340070431005   -0.07710857554479
C         5.10991600703453   -2.05842813511416    1.12862824903883
H         4.75366676923053   -1.09827461041580    1.49974225354542
H         4.97905043045397   -2.79456711444036    1.92098235970030
H         6.16756712122445   -1.99831413577264    0.87680113651106
C         4.72010780594604   -3.84566511670447   -0.58661733185827
H         4.74987936524930   -4.54993052860645    0.24350786139118
H         5.71784996113784   -3.77405221073457   -1.01878708531679
H         4.03452771973237   -4.23330936726811   -1.33533494826723
C         4.16624245327119   -1.36053133460226   -1.15738851110014
O         3.07375255941187   -0.56378195408250   -0.66189929321778
C         5.40950711024493   -0.49225110854041   -1.31489706581376
H         6.26563839553098   -1.09816960571313   -1.61037905935466
H         5.23130940412218    0.25864689769789   -2.08341770665695
H         5.63722063219053    0.02241591326049   -0.38593609237039
C         3.72949971556918   -1.90000525067054   -2.52538224294163
H         2.83747402915705   -2.51553890461598   -2.41693173393554
H         3.47239235688145   -1.05856066553434   -3.16739717431735
H         4.51972133907712   -2.47710429591530   -3.00271139936723
H        -3.38346446345542   -3.98891482082217   -2.57927790947462
H        -5.19999439410411    1.50409521836594    1.29575078455182
C         0.23590000000003   -1.68140000000000    2.96030000000006
C        -1.02659845531467   -2.03021930454559    3.43863452450784
C         1.28299879758463   -1.76959620859655    3.88094472099297
C        -1.17500784776251   -2.36788795839526    4.77395932005679
H        -1.89417514201035   -2.05768248454779    2.79421187824092
C         1.05487267915671   -2.19685657335764    5.18244822425290
H         2.29129995462318   -1.55287678936578    3.55955406810728
N        -0.17032241669404   -2.47450063520035    5.63133540967055
H        -2.15072023209643   -2.61105655525317    5.17995971614072
C         2.19987897230007   -2.42490635912908    6.13053373744685
C         2.34715305988996   -1.29261147735090    7.15854525875318
H         3.12508881036574   -2.50783951392231    5.55600620973316
H         2.03465129773120   -3.36387689232114    6.66309187764926
C         3.58573864576692   -1.50584414774622    7.98363410070430
H         1.45872479468883   -1.27647801518351    7.79271381510019
H         2.41107168375722   -0.33790575822269    6.63158169394932
C         4.77382765579911   -0.86264655805115    7.65678156462348
C         3.58137360906460   -2.39043289927349    9.05663841774284
C         5.92824412458325   -1.08880167728452    8.38748482134923
H         4.79388432405987   -0.17731899815251    6.82054734497796
C         4.73458014033704   -2.62182323799572    9.78712697942047
H         2.66531062836937   -2.90119759924129    9.31968963119421
C         5.91139411184065   -1.97015228521788    9.45559178149260
H         6.84256000530810   -0.57628227223991    8.12214393846343
H         4.71607122245571   -3.31230394675430   10.61894960413985
H         6.81151176550835   -2.14959668851894   10.02665995218005
111
 energy: -157.922145271076 gnorm: 0.036492810841 xtb: 6.4.0 (f63f532)
N        -0.95291125082590   -2.08942114740654   -0.26395069757853
C        -2.22959734454230   -1.68217362527061   -0.37014312939104
C        -3.13028871884713   -2.35514646500116   -1.20398419517155
C        -2.70802157369174   -3.45465600222680   -1.91933334206333
C        -1.38833714675401   -3.87349631270226   -1.78394804243255
C        -0.55764878129149   -3.15715872305677   -0.94933438987467
H         0.47488305208358   -3.44071813959919   -0.80743257938269
H        -1.01770417857187   -4.73399440624622   -2.31602834081742
H        -4.14996891794721   -2.02184471008017   -1.29897767754899
C        -2.59751272715550   -0.51293749634541    0.42463809413093
N        -1.60775786278777    0.06344047713213    1.13707911437575
C        -1.89321920771786    1.12904373135095    1.87944487290508
C        -3.15642370729891    1.67730038909530    1.97130929528887
C        -4.18811495131854    1.09279120033513    1.24554497847142
C        -3.90167942060783   -0.00661271924551    0.46459327761529
H        -4.69045073184021   -0.47277889335885   -0.10120355487367
H        -3.33257452884114    2.53514054686249    2.59949909876593
H        -1.05567787984850    1.55323593683838    2.40929494965387
Ir        0.42150000000000   -0.81650000000000    0.91330000000001
H         0.87260000000001   -2.23030000000000    1.54050000000000
B         0.49449534565447    0.43815929612494   -0.76555576145304
O         0.15602433679305   -0.02445351287832   -2.02907458812226
C         0.00686813328465    1.09336180253458   -2.92231060313354
C         0.49160102690440    0.73678102421519   -4.32395066563365
H         1.50685089608471    0.35634258367936   -4.30314721639199
H         0.44732542042129    1.61483619543290   -4.96340355383376
H        -0.15111944428188   -0.03312821686299   -4.74293791802769
C        -1.49544833738336    1.40530045099183   -2.97001510443488
H        -1.71463395188916    2.21383419045832   -3.66094853239317
H        -2.02460317608153    0.51038068544124   -3.29084548919839
H        -1.84595900251735    1.66473575887964   -1.97316536199662
C         0.82525871430131    2.20700511116049   -2.19958147388177
O         0.75978434596538    1.78731135930019   -0.82609548487716
C         2.30525450139727    2.19505846932294   -2.59700971849351
H         2.70664966628971    1.19763904058637   -2.43926295253874
H         2.44362486984876    2.50797266629318   -3.62803928320179
H         2.84746258240435    2.87508545927432   -1.94462632073416
C         0.27101139180726    3.62125986696751   -2.33797366055949
H        -0.72833980761485    3.69642580184876   -1.92266005263326
H         0.91551536282771    4.30436894520746   -1.79136518004593
H         0.25424809170807    3.91581470516635   -3.38396598096746
B         1.56617376242828    0.62106244260052    1.86715392889401
O         2.92192544025693    0.57346617074863    2.13144502837105
C         3.36059822967689    1.88684796947335    2.51382038622882
C         4.52786871555117    1.78920620923244    3.48806451456955
H         4.27607306634085    1.15676035297338    4.33253103574654
H         5.38114327279021    1.35079874315743    2.97797511817489
H         4.80063024156552    2.77889846422895    3.84299210987340
C         3.80176322411718    2.58272251203691    1.22226515803337
H         4.19940422840295    3.57461378364913    1.41432286622084
H         4.56552733582965    1.97403680620434    0.74593212627834
H         2.95256461146398    2.62964997082617    0.54488222866782
C         2.05223786105470    2.50527478633212    3.09106370503085
O         1.04136396856739    1.80087773407734    2.35224151208745
C         1.89508576415091    4.00696344887687    2.88732844542527
H         1.86225992210283    4.24827494850407    1.83088456628006
H         0.96256662360050    4.33276084038185    3.33984554552067
H         2.71908873131133    4.53470340707197    3.35893114500147
C         1.84051199619122    2.15024542553883    4.56730540526595
H         1.94249800977697    1.07488685917193    4.69727385208819
H         2.54438779764222    2.67443075881661    5.20610060143315
H         0.82818628559424    2.42525848497350    4.85418309506238
B         2.27820000000003   -1.33089999999999    0.17410000000004
O         2.90331512954921   -2.54886370198610    0.40226243638535
C         4.25864510795761   -2.48158123252770   -0.07634357366285
C         5.11399837162816   -2.06024968917521    1.12250220298360
H         4.75261558695352   -1.10320473107509    1.49101524519264
H         4.98458203140300   -2.79557708652698    1.91230174698482
H         6.16597218005150   -2.00066035901940    0.86167008079891
C         4.71178790583015   -3.84378728838006   -0.58825680301752
H         4.74399521229433   -4.54142354461022    0.24360106465019
H         5.70554366718643   -3.76330627345114   -1.01938286747013
H         4.02612548058215   -4.23329598071950   -1.33244801830090
C         4.16177746891408   -1.36113996292509   -1.15522311863684
O         3.06163434922497   -0.57345944401725   -0.67033409857054
C         5.40639976532277   -0.49436210153566   -1.30832898777716
H         6.25496791335257   -1.10770524720939   -1.59768563002084
H         5.22995269651778    0.24957910814908   -2.08011089250274
H         5.63049246172267    0.02283393068559   -0.38258333278607
C         3.74028323807792   -1.90464891874202   -2.52693441578411
H         2.84929459626926   -2.51757672782634   -2.41792504576576
H         3.48711605648423   -1.06523760160170   -3.16975918543339
H         4.53701898623826   -2.47755600859558   -2.99085541395998
H        -3.38920895244287   -3.98063932234589   -2.56985945747479
H        -5.19131527664713    1.48804610648884    1.29107267613113
C         0.23590000000003   -1.68140000000000    2.96030000000006
C        -1.02772919091030   -2.02640020625681    3.44051806722128
C         1.28308336929556   -1.76866243714471    3.88208329411479
C        -1.17419595707806   -2.36125350108132    4.77773998509779
H        -1.89575139971200   -2.05368521014949    2.79753351429700
C         1.05326076186105   -2.19281233639850    5.18412348678269
H         2.29100291254089   -1.55438013179801    3.56033319518036
N        -0.17075642800311   -2.46725213217412    5.63152802756029
H        -2.15035087534151   -2.60200061051023    5.18435300644385
C         2.19776463298332   -2.42240272633070    6.13155455276237
C         2.34661662553445   -1.28828084715175    7.16004297176890
H         3.12234487230025   -2.50662814812415    5.55787312492628
H         2.03067588384192   -3.35945242577278    6.66516097068839
C         3.58452114079257   -1.50353760509560    7.98323160027737
H         1.45927044756379   -1.27160483864580    7.79397025457719
H         2.41155961149878   -0.33519478762363    6.63209428591085
C         4.77249984415135   -0.86236756489044    7.65587075173092
C         3.57940228731047   -2.38650316384768    9.05645531728183
C         5.92615069949133   -1.08895403668755    8.38588281439221
H         4.79307827401713   -0.17799210020120    6.81985197505005
C         4.73156910018877   -2.61860051098664    9.78649414825211
H         2.66346298985073   -2.89535235163218    9.32019818394744
C         5.90884163312520   -1.96898411320683    9.45426614375723
H         6.84029798627781   -0.57796854253968    8.12015943787881
H         4.71247281048444   -3.30777642315956   10.61848065964070
H         6.80823993959799   -2.14890644357004   10.02485745440067
111
 energy: -157.922671139696 gnorm: 0.035896408714 xtb: 6.4.0 (f63f532)
N        -0.94359911675718   -2.08574920451055   -0.27536692460243
C        -2.22124112566511   -1.67883412934457   -0.37593625312434
C        -3.12729325487713   -2.35270453672207   -1.20450305445342
C        -2.71074567618741   -3.45300288620887   -1.92059891482775
C        -1.38898831143150   -3.87137489549431   -1.79192283896079
C        -0.55389234811879   -3.15313405626119   -0.96304289722362
H         0.47887299658931   -3.43992562274629   -0.82689356711204
H        -1.02253914998207   -4.73320601776008   -2.32376923908146
H        -4.14711292622876   -2.01827289759330   -1.29293819091775
C        -2.58728116771723   -0.51261520625761    0.41815152523876
N        -1.59818028682084    0.06369993794351    1.13226112105103
C        -1.88700471445619    1.12891442760012    1.87300976243047
C        -3.15091491075227    1.67459274912222    1.96677190875323
C        -4.18307775951432    1.08801114943937    1.24069509607373
C        -3.89290117088329   -0.00806176502780    0.45784057165396
H        -4.67904456342014   -0.47504377084943   -0.11066644616293
H        -3.32871167533972    2.53010401226197    2.59660811616139
H        -1.05272689767879    1.55526412368339    2.40686646971138
Ir        0.42150000000000   -0.81650000000000    0.91330000000001
H         0.87260000000001   -2.23030000000000    1.54050000000000
B         0.47942355990654    0.45357454347213   -0.74581348992406
O         0.13482821564008   -0.01543459724433   -2.00495333333939
C        -0.00137489829571    1.09372913260010   -2.90544714941584
C         0.49126477557762    0.72574049697264   -4.30218643940418
H         1.50396893439651    0.33930406527155   -4.27429125542630
H         0.45461810427922    1.60298949302415   -4.94263067877178
H        -0.15441690626258   -0.04166744859112   -4.72081363816632
C        -1.50246974693589    1.41358023272212   -2.96977144092714
H        -1.70696736122083    2.21971297749966   -3.66745235160639
H        -2.03238704865387    0.51985747655867   -3.29203278670580
H        -1.86162627667123    1.67995878907172   -1.97795608793392
C         0.81793962798250    2.20989024003798   -2.18721697956669
O         0.76018008798144    1.79749851907931   -0.81425504976952
C         2.29659125814015    2.19894968611059   -2.59297472803378
H         2.70005208484801    1.20349306851755   -2.42854952809013
H         2.42650332449054    2.50352552187003   -3.62722347746075
H         2.83986564992990    2.88630389771093   -1.94939115491252
C         0.26243992026816    3.62374085619112   -2.33388628660694
H        -0.73494709804511    3.70291048495111   -1.91497379041628
H         0.91032382239255    4.31148982594310   -1.79726702423851
H         0.24137629324309    3.90558417911949   -3.38308188156873
B         1.56615679315404    0.62150638455049    1.87607202745766
O         2.92227441760270    0.57806886269921    2.12468737130834
C         3.35970178149012    1.88716002824494    2.51668338940147
C         4.52566652335009    1.78713632409943    3.49371393279700
H         4.27455289851349    1.14918411455866    4.33407523021200
H         5.38149647766707    1.35534464233172    2.98250873430532
H         4.79179048013914    2.77656622499744    3.85364608851664
C         3.80498387860171    2.59249221176072    1.23073495979163
H         4.19893720554540    3.58371055811921    1.43122504377689
H         4.57223467015532    1.98828494682977    0.75444473797983
H         2.95752604928051    2.64031041937029    0.55158171567542
C         2.05171940300663    2.50482437007349    3.09576092137640
O         1.03997876978802    1.79470359509326    2.36709350625793
C         1.89331614288954    4.00661932077054    2.88746735331061
H         1.85298765534138    4.24525825903269    1.83069438097262
H         0.96478729138167    4.33429394170987    3.34656235260068
H         2.72222367820091    4.53269649219171    3.35171017260286
C         1.84874587430956    2.15781983175819    4.57607848919130
H         1.95288346933260    1.08325465028421    4.70876068737452
H         2.55652504150825    2.68639774142671    5.20616891279161
H         0.83786640550497    2.43316432659179    4.86689094435180
B         2.27820000000003   -1.33089999999999    0.17410000000005
O         2.90493653427689   -2.54256388890015    0.41246799028114
C         4.25451358242966   -2.48087330442665   -0.07449757248399
C         5.11925728383235   -2.06093906775405    1.11918628912134
H         4.75907340227074   -1.10439235309584    1.48971975347540
H         4.99415671293089   -2.79715627918010    1.90856979975345
H         6.16866282303565   -2.00158478570014    0.85020131529317
C         4.70342774686658   -3.84511539883262   -0.58736962222880
H         4.73904791934373   -4.54098366574639    0.24559127618366
H         5.69502543956908   -3.76253982601574   -1.02217687423891
H         4.01482997082494   -4.23531382584598   -1.32831693534074
C         4.15842226092012   -1.36224546828573   -1.15532380927105
O         3.05293183076793   -0.57870594353898   -0.67965479818188
C         5.40311739404812   -0.49370758449326   -1.30328912335721
H         6.25150345965865   -1.11060906543160   -1.58474923191146
H         5.23104488849635    0.24634198592047   -2.07958198995805
H         5.62197152776703    0.02693931253689   -0.37838964517844
C         3.74974553314703   -1.90969883271336   -2.53031509764011
H         2.85922780629576   -2.52381736402111   -2.42691020686580
H         3.50190293754054   -1.07177574651829   -3.17698489758899
H         4.55286473993653   -2.48157295255821   -2.98348671168144
H        -3.39569953767823   -3.97938931292176   -2.56651363224729
H        -5.18729799070481    1.47962978574125    1.28795148606139
C         0.23590000000002   -1.68139999999999    2.96030000000007
C        -1.02868244480241   -2.02191094438908    3.44148607925099
C         1.28318257419575   -1.76850354968201    3.88228174218938
C        -1.17549428936815   -2.35284364808293    4.78020276591011
H        -1.89703492706750   -2.04868309740778    2.79910793070899
C         1.05225546390592   -2.18902659504284    5.18539511134055
H         2.29128817067238   -1.55685084715045    3.55970038382050
N        -0.17235113984054   -2.45910026071500    5.63318628707745
H        -2.15266433905946   -2.58972603559690    5.18701677357533
C         2.19584453333423   -2.41890990689741    6.13340143059052
C         2.34526107722835   -1.28308877827115    7.16077647772942
H         3.12064973449639   -2.50488860464466    5.56070832827245
H         2.02677050647347   -3.35450070605409    6.66873403828727
C         3.58269959210627   -1.49929570451115    7.98356930590108
H         1.45793218289631   -1.26548142092771    7.79445261045637
H         2.41118795534296   -0.33104995412707    6.63138654775779
C         4.77166012977714   -0.86065565523252    7.65477736597126
C         3.57655230401385   -2.38147620582359    9.05750525456491
C         5.92537029426035   -1.08873312188087    8.38428589825327
H         4.79296017665324   -0.17727449600947    6.81798884858139
C         4.72871276442748   -2.61507712392803    9.78706207622452
H         2.65986585361643   -2.88858217635677    9.32201862205087
C         5.90707585974841   -1.96774701158809    9.45360875176000
H         6.84021703371025   -0.57956835573715    8.11764358696573
H         4.70884150366515   -3.30333340886184   10.61973828913703