      -----------------------------------------------------------      
     |                   =====================                   |     
     |                           x T B                           |     
     |                   =====================                   |     
     |                         S. Grimme                         |     
     |          Mulliken Center for Theoretical Chemistry        |     
     |                    University of Bonn                     |     
      -----------------------------------------------------------      

   * xtb version 6.4.0 (f63f532) compiled by 'knkr256@seskscpg008.prim.scp' on 2021-04-09

   xtb is free software: you can redistribute it and/or modify it under
   the terms of the GNU Lesser General Public License as published by
   the Free Software Foundation, either version 3 of the License, or
   (at your option) any later version.
   
   xtb is distributed in the hope that it will be useful,
   but WITHOUT ANY WARRANTY; without even the implied warranty of
   MERCHANTABILITY or FITNESS FOR A PARTICULAR PURPOSE.  See the
   GNU Lesser General Public License for more details.
   
   Cite this work as:
   * C. Bannwarth, E. Caldeweyher, S. Ehlert, A. Hansen, P. Pracht,
     J. Seibert, S. Spicher, S. Grimme, WIREs Comput. Mol. Sci., 2020, 11,
     e01493. DOI: 10.1002/wcms.1493
   
   for GFN2-xTB:
   * C. Bannwarth, S. Ehlert and S. Grimme., J. Chem. Theory Comput., 2019,
     15, 1652-1671. DOI: 10.1021/acs.jctc.8b01176
   for GFN1-xTB:
   * S. Grimme, C. Bannwarth, P. Shushkov, J. Chem. Theory Comput., 2017,
     13, 1989-2009. DOI: 10.1021/acs.jctc.7b00118
   for GFN0-xTB:
   * P. Pracht, E. Caldeweyher, S. Ehlert, S. Grimme, ChemRxiv, 2019, preprint.
     DOI: 10.26434/chemrxiv.8326202.v1
   for GFN-FF:
   * S. Spicher and S. Grimme, Angew. Chem. Int. Ed., 2020, 59, 15665-15673.
     DOI: 10.1002/anie.202004239
   
   for DFT-D4:
   * E. Caldeweyher, C. Bannwarth and S. Grimme, J. Chem. Phys., 2017,
     147, 034112. DOI: 10.1063/1.4993215
   * E. Caldeweyher, S. Ehlert, A. Hansen, H. Neugebauer, S. Spicher,
     C. Bannwarth and S. Grimme, J. Chem. Phys., 2019, 150, 154122.
     DOI: 10.1063/1.5090222
   * E. Caldeweyher, J.-M. Mewes, S. Ehlert and S. Grimme, Phys. Chem. Chem. Phys.
     2020, 22, 8499-8512. DOI: 10.1039/D0CP00502A
   
   for sTDA-xTB:
   * S. Grimme and C. Bannwarth, J. Chem. Phys., 2016, 145, 054103.
     DOI: 10.1063/1.4959605
   
   in the mass-spec context:
   * V. Asgeirsson, C. Bauer and S. Grimme, Chem. Sci., 2017, 8, 4879.
     DOI: 10.1039/c7sc00601b
   * J. Koopman and S. Grimme, ACS Omega 2019, 4, 12, 15120-15133.
     DOI: 10.1021/acsomega.9b02011
   
   for metadynamics refer to:
   * S. Grimme, J. Chem. Theory Comput., 2019, 155, 2847-2862
     DOI: 10.1021/acs.jctc.9b00143
   
   for SPH calculations refer to:
   * S. Spicher and S. Grimme, J. Chem. Theory Comput., 2021, 17, 1701-1714
     DOI: 10.1021/acs.jctc.0c01306
   
   with help from (in alphabetical order)
   P. Atkinson, C. Bannwarth, F. Bohle, G. Brandenburg, E. Caldeweyher
   M. Checinski, S. Dohm, S. Ehlert, S. Ehrlich, I. Gerasimov, J. Koopman
   C. Lavinge, S. Lehtola, F. März, M. Müller, F. Musil, H. Neugebauer
   J. Pisarek, P. Pracht, J. Seibert, P. Shushkov, S. Spicher, M. Stahn
   T. Strunk, J. Stückrath, T. Rose, and J. Unsleber
   
 * started run on 2021/10/08 at 07:14:40.677     

           -------------------------------------------------
          |                Calculation Setup                |
           -------------------------------------------------

          program call               : xtb xtbopt.xyz --sp --alpb thf -P 6
          hostname                   : seskscpg010.prim.scp
          coordinate file            : xtbopt.xyz
          omp threads                :                     6
          number of atoms            :                   107
          number of electrons        :                   280
          charge                     :                     0
          spin                       :                   0.0
          first test random number   :      0.63184247385087

   ID    Z sym.   atoms
    1    7 N      1, 11, 95
    2    6 C      2-6, 10, 12-15, 23, 24, 28, 32, 34, 38, 44, 45, 49, 53, 55,
                  59, 65, 66, 70, 74, 76, 80, 86-91, 93, 100-102, 104
    3    1 H      7-9, 16-18, 20, 25-27, 29-31, 35-37, 39-41, 46-48, 50-52,
                  56-58, 60-62, 67-69, 71-73, 77-79, 81-85, 92, 94, 96-99,
                  103, 105-107
    4   77 Ir     19
    5    5 B      21, 42, 63
    6    8 O      22, 33, 43, 54, 64, 75

molecular fragmentation (1/2 indicates fragments):
111111111111111111111111111111111111111111111111111111111111111111111111
11111111111112222222222222222222222
# atoms in fragment 1/2:    85    22
 fragment masses (1/2) :      730.32      156.20
CMA distance (Bohr)    :   8.817
constraining FC (au)   :  0.0500

           -------------------------------------------------
          |                 G F N 2 - x T B                 |
           -------------------------------------------------

        Reference                      10.1021/acs.jctc.8b01176
      * Hamiltonian:
        H0-scaling (s, p, d)           1.850000    2.230000    2.230000
        zeta-weighting                 0.500000
      * Dispersion:
        s8                             2.700000
        a1                             0.520000
        a2                             5.000000
        s9                             5.000000
      * Repulsion:
        kExp                           1.500000    1.000000
        rExp                           1.000000
      * Coulomb:
        alpha                          2.000000
        third order                    shell-resolved
        anisotropic                    true
        a3                             3.000000
        a5                             4.000000
        cn-shift                       1.200000
        cn-exp                         4.000000
        max-rad                        5.000000

      * Solvation model:               ALPB
        Solvent                        thf
        Parameter file                 internal GFN2-xTB/ALPB
        Dielectric constant                7.6000E+00
        Reference state                gsolv [1 M gas/solution]
        Free energy shift                  5.3248E-03 Eh       3.3414E+00 kcal/mol
        Temperature                        2.9815E+02 K
        Density                            8.8300E-01 kg/L
        Solvent mass                       7.2106E+01 g/mol
        Interaction kernel             P16
        Born radius scaling (c1)           1.7311E+00
        Born radii integrator          GBOBC
        Born offset                        0.0000E+00 a0       0.0000E+00 AA
        H-bond correction              true
        Ion screening                  false
        Surface tension                    1.0000E-05 Eh       1.5569E+01 dyn/cm
        Grid points                               230 per atom
q/qsh data taken from xtbrestart
CAMM data taken from xtbrestart

          ...................................................
          :                      SETUP                      :
          :.................................................:
          :  # basis functions                 269          :
          :  # atomic orbitals                 268          :
          :  # shells                          160          :
          :  # electrons                       280          :
          :  max. iterations                   250          :
          :  Hamiltonian                  GFN2-xTB          :
          :  restarted?                       true          :
          :  GBSA solvation                   true          :
          :  PC potential                    false          :
          :  electronic temp.          300.0000000     K    :
          :  accuracy                    1.0000000          :
          :  -> integral cutoff          0.2500000E+02      :
          :  -> integral neglect         0.1000000E-07      :
          :  -> SCF convergence          0.1000000E-05 Eh   :
          :  -> wf. convergence          0.1000000E-03 e    :
          :  Broyden damping             0.4000000          :
          ...................................................

 iter      E             dE          RMSdq      gap      omega  full diag
   1   -154.6786820 -0.154679E+03  0.283E-05    0.91       0.0  T
   2   -154.6786820  0.427463E-10  0.307E-05    0.91     314.5  T
   3   -154.6786820 -0.443947E-10  0.226E-05    0.91     426.9  T

   *** convergence criteria satisfied after 3 iterations ***

         #    Occupation            Energy/Eh            Energy/eV
      -------------------------------------------------------------
         1        2.0000           -0.6750281             -18.3684
       ...           ...                  ...                  ...
       134        2.0000           -0.3572567              -9.7215
       135        2.0000           -0.3505286              -9.5384
       136        2.0000           -0.3298961              -8.9769
       137        2.0000           -0.3226652              -8.7802
       138        2.0000           -0.3157036              -8.5907
       139        2.0000           -0.3099856              -8.4351
       140        2.0000           -0.3070601              -8.3555 (HOMO)
       141                         -0.2736422              -7.4462 (LUMO)
       142                         -0.2475114              -6.7351
       143                         -0.2420011              -6.5852
       144                         -0.2134921              -5.8094
       145                         -0.2089786              -5.6866
       ...                                ...                  ...
       268                          4.0237816             109.4927
      -------------------------------------------------------------
                  HL-Gap            0.0334179 Eh            0.9093 eV
             Fermi-level           -0.2903297 Eh           -7.9003 eV

 SCC (total)                   0 d,  0 h,  0 min,  0.114 sec
 SCC setup                      ...        0 min,  0.003 sec (  2.243%)
 Dispersion                     ...        0 min,  0.003 sec (  2.272%)
 classical contributions        ...        0 min,  0.000 sec (  0.143%)
 integral evaluation            ...        0 min,  0.030 sec ( 25.960%)
 iterations                     ...        0 min,  0.034 sec ( 30.282%)
 molecular gradient             ...        0 min,  0.044 sec ( 38.514%)
 printout                       ...        0 min,  0.001 sec (  0.537%)

         :::::::::::::::::::::::::::::::::::::::::::::::::::::
         ::                     SUMMARY                     ::
         :::::::::::::::::::::::::::::::::::::::::::::::::::::
         :: total energy            -152.620485870105 Eh    ::
         :: total w/o Gsasa/hb      -152.580975529006 Eh    ::
         :: gradient norm              0.027567997127 Eh/a0 ::
         :: HOMO-LUMO gap              0.909346462064 eV    ::
         ::.................................................::
         :: SCC energy              -154.678681954321 Eh    ::
         :: -> isotropic ES            0.236057904688 Eh    ::
         :: -> anisotropic ES          0.013837400897 Eh    ::
         :: -> anisotropic XC          0.056600771339 Eh    ::
         :: -> dispersion             -0.158991508852 Eh    ::
         :: -> Gsolv                  -0.048209658556 Eh    ::
         ::    -> Gelec               -0.008699317457 Eh    ::
         ::    -> Gsasa               -0.042490375995 Eh    ::
         ::    -> Ghb                 -0.002344780548 Eh    ::
         ::    -> Gshift               0.005324815444 Eh    ::
         :: repulsion energy           2.047731970888 Eh    ::
         :: add. restraining           0.000000000000 Eh    ::
         :: total charge               0.000000000000 e     ::
         :::::::::::::::::::::::::::::::::::::::::::::::::::::

           -------------------------------------------------
          |                Property Printout                |
           -------------------------------------------------

    * Orbital Energies and Occupations

         #    Occupation            Energy/Eh            Energy/eV
      -------------------------------------------------------------
         1        2.0000           -0.6750281             -18.3684
       ...           ...                  ...                  ...
       128        2.0000           -0.3869453             -10.5293
       129        2.0000           -0.3857994             -10.4981
       130        2.0000           -0.3841134             -10.4523
       131        2.0000           -0.3836042             -10.4384
       132        2.0000           -0.3822035             -10.4003
       133        2.0000           -0.3717719             -10.1164
       134        2.0000           -0.3572567              -9.7215
       135        2.0000           -0.3505286              -9.5384
       136        2.0000           -0.3298961              -8.9769
       137        2.0000           -0.3226652              -8.7802
       138        2.0000           -0.3157036              -8.5907
       139        2.0000           -0.3099856              -8.4351
       140        2.0000           -0.3070601              -8.3555 (HOMO)
       141                         -0.2736422              -7.4462 (LUMO)
       142                         -0.2475114              -6.7351
       143                         -0.2420011              -6.5852
       144                         -0.2134921              -5.8094
       145                         -0.2089786              -5.6866
       146                         -0.2023634              -5.5066
       147                         -0.1801648              -4.9025
       148                         -0.1713015              -4.6614
       149                         -0.1534620              -4.1759
       150                         -0.1294605              -3.5228
       151                         -0.1278069              -3.4778
       ...                                ...                  ...
       268                          4.0237816             109.4927
      -------------------------------------------------------------
                  HL-Gap            0.0334179 Eh            0.9093 eV
             Fermi-level           -0.2903297 Eh           -7.9003 eV

     #   Z          covCN         q      C6AA      α(0)
     1   7 N        2.515    -0.132    23.899     7.260
     2   6 C        2.953     0.079    26.234     8.401
     3   6 C        2.918    -0.043    29.060     8.840
     4   6 C        2.923    -0.022    28.563     8.764
     5   6 C        2.915    -0.045    29.129     8.850
     6   6 C        2.891     0.048    26.923     8.507
     7   1 H        0.926     0.051     2.307     2.375
     8   1 H        0.926     0.055     2.263     2.352
     9   1 H        0.926     0.045     2.382     2.413
    10   6 C        2.955     0.073    26.366     8.422
    11   7 N        2.554    -0.126    23.766     7.240
    12   6 C        2.892     0.042    27.065     8.530
    13   6 C        2.916    -0.042    29.047     8.838
    14   6 C        2.923    -0.023    28.577     8.767
    15   6 C        2.920    -0.041    29.023     8.834
    16   1 H        0.926     0.043     2.406     2.426
    17   1 H        0.926     0.049     2.335     2.389
    18   1 H        0.926     0.076     2.017     2.221
    19  77 Ir       5.899    -0.149   387.430    36.399
    20   1 H        0.977     0.084     1.931     2.171
    21   5 B        2.626     0.406    16.005     6.763
    22   8 O        1.638    -0.406    20.976     6.182
    23   6 C        3.834     0.130    18.450     6.111
    24   6 C        3.755    -0.120    22.864     6.818
    25   1 H        0.925     0.053     2.282     2.362
    26   1 H        0.925     0.044     2.392     2.419
    27   1 H        0.925     0.051     2.307     2.375
    28   6 C        3.755    -0.110    22.657     6.787
    29   1 H        0.925     0.047     2.352     2.399
    30   1 H        0.925     0.042     2.422     2.434
    31   1 H        0.925     0.028     2.617     2.530
    32   6 C        3.840     0.131    18.427     6.107
    33   8 O        1.637    -0.409    21.036     6.191
    34   6 C        3.755    -0.122    22.903     6.824
    35   1 H        0.925     0.056     2.250     2.346
    36   1 H        0.925     0.045     2.382     2.413
    37   1 H        0.925     0.048     2.348     2.396
    38   6 C        3.755    -0.119    22.839     6.814
    39   1 H        0.925     0.045     2.378     2.411
    40   1 H        0.925     0.052     2.290     2.367
    41   1 H        0.925     0.045     2.379     2.412
    42   5 B        2.621     0.404    16.060     6.779
    43   8 O        1.637    -0.384    20.544     6.118
    44   6 C        3.833     0.129    18.471     6.115
    45   6 C        3.755    -0.126    22.974     6.834
    46   1 H        0.925     0.055     2.253     2.347
    47   1 H        0.925     0.056     2.245     2.343
    48   1 H        0.925     0.050     2.325     2.385
    49   6 C        3.755    -0.121    22.868     6.819
    50   1 H        0.925     0.048     2.347     2.396
    51   1 H        0.925     0.044     2.392     2.419
    52   1 H        0.925     0.052     2.291     2.367
    53   6 C        3.832     0.127    18.491     6.118
    54   8 O        1.637    -0.380    20.479     6.108
    55   6 C        3.755    -0.124    22.942     6.830
    56   1 H        0.925     0.053     2.281     2.362
    57   1 H        0.925     0.055     2.260     2.351
    58   1 H        0.925     0.049     2.336     2.390
    59   6 C        3.755    -0.125    22.947     6.830
    60   1 H        0.925     0.046     2.371     2.408
    61   1 H        0.925     0.053     2.282     2.362
    62   1 H        0.925     0.052     2.290     2.366
    63   5 B        2.629     0.408    15.969     6.752
    64   8 O        1.637    -0.375    20.389     6.095
    65   6 C        3.832     0.125    18.522     6.123
    66   6 C        3.755    -0.129    23.024     6.842
    67   1 H        0.925     0.056     2.242     2.342
    68   1 H        0.925     0.055     2.258     2.350
    69   1 H        0.925     0.050     2.324     2.384
    70   6 C        3.755    -0.131    23.065     6.848
    71   1 H        0.925     0.062     2.179     2.308
    72   1 H        0.925     0.051     2.314     2.379
    73   1 H        0.925     0.053     2.278     2.360
    74   6 C        3.832     0.128    18.484     6.117
    75   8 O        1.637    -0.384    20.550     6.119
    76   6 C        3.755    -0.124    22.926     6.827
    77   1 H        0.925     0.051     2.304     2.374
    78   1 H        0.925     0.053     2.284     2.364
    79   1 H        0.925     0.054     2.266     2.354
    80   6 C        3.755    -0.122    22.900     6.823
    81   1 H        0.925     0.040     2.447     2.446
    82   1 H        0.925     0.049     2.328     2.386
    83   1 H        0.925     0.055     2.258     2.350
    84   1 H        0.926     0.051     2.310     2.377
    85   1 H        0.926     0.046     2.366     2.406
    86   6 C        2.827    -0.032    28.777     8.790
    87   6 C        2.972     0.004    27.921     8.667
    88   6 C        2.926    -0.039    28.981     8.828
    89   6 C        2.926    -0.042    29.034     8.837
    90   6 C        3.748    -0.010    20.812     6.507
    91   6 C        2.918    -0.037    28.909     8.817
    92   1 H        0.926     0.047     2.356     2.400
    93   6 C        2.916    -0.043    29.074     8.842
    94   1 H        0.925     0.032     2.563     2.503
    95   7 N        2.859    -0.006    21.376     6.867
    96   1 H        0.923     0.053     2.288     2.365
    97   1 H        0.924     0.060     2.202     2.321
    98   1 H        0.926     0.032     2.558     2.501
    99   1 H        0.926     0.033     2.550     2.497
   100   6 C        3.062    -0.022    28.494     8.753
   101   6 C        3.071    -0.032    28.733     8.789
   102   6 C        3.064    -0.078    29.875     8.963
   103   1 H        0.926     0.026     2.650     2.546
   104   6 C        3.056    -0.076    29.831     8.957
   105   1 H        0.926     0.016     2.796     2.615
   106   1 H        0.926     0.008     2.924     2.674
   107   1 H        0.926     0.010     2.889     2.658

 Mol. C6AA /au·bohr⁶  :     123429.805218
 Mol. C8AA /au·bohr⁸  :    3263334.556809
 Mol. α(0) /au        :        546.932348


Wiberg/Mayer (AO) data.
largest (>0.10) Wiberg bond orders for each atom

 ---------------------------------------------------------------------------
     #   Z sym  total        # sym  WBO       # sym  WBO       # sym  WBO
 ---------------------------------------------------------------------------
     1   7 N    3.386 --     6 C    1.389     2 C    1.306    19 Ir   0.415
     2   6 C    3.979 --     3 C    1.349     1 N    1.306    10 C    1.094
     3   6 C    3.988 --     4 C    1.483     2 C    1.349     9 H    0.962
                             6 C    0.105
     4   6 C    3.985 --     3 C    1.483     5 C    1.381    84 H    0.969
     5   6 C    3.978 --     6 C    1.460     4 C    1.381     8 H    0.969
     6   6 C    3.978 --     5 C    1.460     1 N    1.389     7 H    0.958
                             3 C    0.105
     7   1 H    0.997 --     6 C    0.958
     8   1 H    0.996 --     5 C    0.969
     9   1 H    0.998 --     3 C    0.962
    10   6 C    3.978 --    15 C    1.355    11 N    1.300     2 C    1.094
    11   7 N    3.399 --    12 C    1.375    10 C    1.300    19 Ir   0.431
    12   6 C    3.973 --    13 C    1.462    11 N    1.375    18 H    0.947
                            15 C    0.104
    13   6 C    3.983 --    12 C    1.462    14 C    1.383    17 H    0.969
    14   6 C    3.980 --    15 C    1.475    13 C    1.383    85 H    0.969
    15   6 C    3.989 --    14 C    1.475    10 C    1.355    16 H    0.962
                            12 C    0.104
    16   1 H    0.998 --    15 C    0.962
    17   1 H    0.997 --    13 C    0.969
    18   1 H    0.994 --    12 C    0.947
    19  77 Ir   5.119 --    42 B    0.853    63 B    0.846    21 B    0.699
                            86 C    0.599    20 H    0.548    11 N    0.431
                             1 N    0.415
    20   1 H    0.991 --    19 Ir   0.548    86 C    0.334
    21   5 B    3.274 --    33 O    1.106    22 O    1.098    19 Ir   0.699
    22   8 O    2.195 --    21 B    1.098    23 C    0.942
    23   6 C    3.943 --    24 C    0.996    28 C    0.990    22 O    0.942
                            32 C    0.941
    24   6 C    3.994 --    23 C    0.996    26 H    0.984    27 H    0.983
                            25 H    0.983
    25   1 H    0.997 --    24 C    0.983
    26   1 H    0.997 --    24 C    0.984
    27   1 H    0.997 --    24 C    0.983
    28   6 C    3.996 --    23 C    0.990    29 H    0.984    31 H    0.984
                            30 H    0.984
    29   1 H    0.997 --    28 C    0.984
    30   1 H    0.998 --    28 C    0.984
    31   1 H    0.999 --    28 C    0.984
    32   6 C    3.940 --    38 C    0.997    34 C    0.991    23 C    0.941
                            33 O    0.938
    33   8 O    2.194 --    21 B    1.106    32 C    0.938
    34   6 C    3.993 --    32 C    0.991    36 H    0.983    37 H    0.982
                            35 H    0.979
    35   1 H    0.997 --    34 C    0.979
    36   1 H    0.997 --    34 C    0.983
    37   1 H    0.997 --    34 C    0.982
    38   6 C    3.994 --    32 C    0.997    41 H    0.984    39 H    0.983
                            40 H    0.983
    39   1 H    0.998 --    38 C    0.983
    40   1 H    0.997 --    38 C    0.983
    41   1 H    0.997 --    38 C    0.984
    42   5 B    3.339 --    54 O    1.115    43 O    1.113    19 Ir   0.853
    43   8 O    2.227 --    42 B    1.113    44 C    0.936
    44   6 C    3.937 --    45 C    0.996    49 C    0.991    53 C    0.938
                            43 O    0.936
    45   6 C    3.993 --    44 C    0.996    48 H    0.983    46 H    0.982
                            47 H    0.981
    46   1 H    0.997 --    45 C    0.982
    47   1 H    0.997 --    45 C    0.981
    48   1 H    0.996 --    45 C    0.983
    49   6 C    3.994 --    44 C    0.991    50 H    0.983    51 H    0.983
                            52 H    0.979
    50   1 H    0.997 --    49 C    0.983
    51   1 H    0.998 --    49 C    0.983
    52   1 H    0.997 --    49 C    0.979
    53   6 C    3.937 --    55 C    0.996    59 C    0.992    44 C    0.938
                            54 O    0.933
    54   8 O    2.231 --    42 B    1.115    53 C    0.933
    55   6 C    3.993 --    53 C    0.996    58 H    0.983    57 H    0.983
                            56 H    0.982
    56   1 H    0.997 --    55 C    0.982
    57   1 H    0.997 --    55 C    0.983
    58   1 H    0.996 --    55 C    0.983
    59   6 C    3.994 --    53 C    0.992    61 H    0.983    62 H    0.983
                            60 H    0.982
    60   1 H    0.998 --    59 C    0.982
    61   1 H    0.996 --    59 C    0.983
    62   1 H    0.997 --    59 C    0.983
    63   5 B    3.361 --    64 O    1.112    75 O    1.111    19 Ir   0.846
    64   8 O    2.231 --    63 B    1.112    65 C    0.938
    65   6 C    3.937 --    70 C    0.996    66 C    0.991    74 C    0.939
                            64 O    0.938
    66   6 C    3.993 --    65 C    0.991    69 H    0.983    68 H    0.982
                            67 H    0.979
    67   1 H    0.997 --    66 C    0.979
    68   1 H    0.997 --    66 C    0.982
    69   1 H    0.996 --    66 C    0.983
    70   6 C    3.992 --    65 C    0.996    72 H    0.983    73 H    0.982
                            71 H    0.982
    71   1 H    0.996 --    70 C    0.982
    72   1 H    0.996 --    70 C    0.983
    73   1 H    0.997 --    70 C    0.982
    74   6 C    3.935 --    76 C    0.997    80 C    0.991    65 C    0.939
                            75 O    0.935
    75   8 O    2.227 --    63 B    1.111    74 C    0.935
    76   6 C    3.993 --    74 C    0.997    77 H    0.983    79 H    0.982
                            78 H    0.982
    77   1 H    0.996 --    76 C    0.983
    78   1 H    0.997 --    76 C    0.982
    79   1 H    0.997 --    76 C    0.982
    80   6 C    3.995 --    74 C    0.991    81 H    0.984    83 H    0.983
                            82 H    0.983
    81   1 H    0.998 --    80 C    0.984
    82   1 H    0.997 --    80 C    0.983
    83   1 H    0.996 --    80 C    0.983
    84   1 H    0.997 --     4 C    0.969
    85   1 H    0.997 --    14 C    0.969
    86   6 C    3.942 --    87 C    1.382    88 C    1.364    19 Ir   0.599
                            20 H    0.334
    87   6 C    3.983 --    89 C    1.391    86 C    1.382    90 C    1.000
                            91 C    0.101
    88   6 C    3.989 --    91 C    1.464    86 C    1.364    92 H    0.956
                            89 C    0.108
    89   6 C    3.987 --    93 C    1.457    87 C    1.391    94 H    0.968
                            88 C    0.108
    90   6 C    3.970 --    87 C    1.000    95 N    0.975    96 H    0.958
                            97 H    0.949
    91   6 C    3.988 --    88 C    1.464    93 C    1.409    98 H    0.969
                            87 C    0.101
    92   1 H    0.997 --    88 C    0.956
    93   6 C    3.987 --    89 C    1.457    91 C    1.409    99 H    0.970
    94   1 H    0.997 --    89 C    0.968
    95   7 N    3.640 --   100 C    1.242   101 C    1.231    90 C    0.975
    96   1 H    0.997 --    90 C    0.958
    97   1 H    0.996 --    90 C    0.949
    98   1 H    0.998 --    91 C    0.969
    99   1 H    0.997 --    93 C    0.970
   100   6 C    3.948 --   102 C    1.536    95 N    1.242   103 H    0.967
                           101 C    0.127
   101   6 C    3.941 --   104 C    1.540    95 N    1.231   105 H    0.971
                           100 C    0.127
   102   6 C    3.976 --   100 C    1.536   104 C    1.337   106 H    0.976
   103   1 H    0.999 --   100 C    0.967
   104   6 C    3.977 --   101 C    1.540   102 C    1.337   107 H    0.975
   105   1 H    1.000 --   101 C    0.971
   106   1 H    1.000 --   102 C    0.976
   107   1 H    0.999 --   104 C    0.975
 ---------------------------------------------------------------------------

Topologies differ in total number of bonds
Writing topology from bond orders to xtbtopo.mol

molecular dipole:
                 x           y           z       tot (Debye)
 q only:        1.347      -0.190      -1.087
   full:        0.268       0.165      -1.716       4.433
molecular quadrupole (traceless):
                xx          xy          yy          xz          yz          zz
 q only:       -0.491       1.715       8.626      12.290       7.951      -8.135
  q+dip:        2.262       4.507       7.614      14.486      12.809      -9.876
   full:       -0.071       5.270       9.194      11.520       9.905      -9.123


           -------------------------------------------------
          | TOTAL ENERGY             -152.620485870105 Eh   |
          | GRADIENT NORM               0.027567997127 Eh/α |
          | HOMO-LUMO GAP               0.909346462064 eV   |
           -------------------------------------------------

------------------------------------------------------------------------
 * finished run on 2021/10/08 at 07:14:40.835     
------------------------------------------------------------------------
 total:
 * wall-time:     0 d,  0 h,  0 min,  0.158 sec
 *  cpu-time:     0 d,  0 h,  0 min,  0.923 sec
 * ratio c/w:     5.848 speedup
 SCF:
 * wall-time:     0 d,  0 h,  0 min,  0.115 sec
 *  cpu-time:     0 d,  0 h,  0 min,  0.689 sec
 * ratio c/w:     5.974 speedup

