      -----------------------------------------------------------      
     |                   =====================                   |     
     |                           x T B                           |     
     |                   =====================                   |     
     |                         S. Grimme                         |     
     |          Mulliken Center for Theoretical Chemistry        |     
     |                    University of Bonn                     |     
      -----------------------------------------------------------      

   * xtb version 6.4.1 (1a32961) compiled by 'knkr256@seskscpg007.prim.scp' on 2021-10-19

   xtb is free software: you can redistribute it and/or modify it under
   the terms of the GNU Lesser General Public License as published by
   the Free Software Foundation, either version 3 of the License, or
   (at your option) any later version.
   
   xtb is distributed in the hope that it will be useful,
   but WITHOUT ANY WARRANTY; without even the implied warranty of
   MERCHANTABILITY or FITNESS FOR A PARTICULAR PURPOSE.  See the
   GNU Lesser General Public License for more details.
   
   Cite this work as:
   * C. Bannwarth, E. Caldeweyher, S. Ehlert, A. Hansen, P. Pracht,
     J. Seibert, S. Spicher, S. Grimme, WIREs Comput. Mol. Sci., 2020, 11,
     e01493. DOI: 10.1002/wcms.1493
   
   for GFN2-xTB:
   * C. Bannwarth, S. Ehlert and S. Grimme., J. Chem. Theory Comput., 2019,
     15, 1652-1671. DOI: 10.1021/acs.jctc.8b01176
   for GFN1-xTB:
   * S. Grimme, C. Bannwarth, P. Shushkov, J. Chem. Theory Comput., 2017,
     13, 1989-2009. DOI: 10.1021/acs.jctc.7b00118
   for GFN0-xTB:
   * P. Pracht, E. Caldeweyher, S. Ehlert, S. Grimme, ChemRxiv, 2019, preprint.
     DOI: 10.26434/chemrxiv.8326202.v1
   for GFN-FF:
   * S. Spicher and S. Grimme, Angew. Chem. Int. Ed., 2020, 59, 15665-15673.
     DOI: 10.1002/anie.202004239
   
   for ALPB and GBSA implicit solvation:
   * S. Ehlert, M. Stahn, S. Spicher, S. Grimme, J. Chem. Theory Comput.,
     2021, 17, 4250-4261. DOI: 10.1021/acs.jctc.1c00471
   
   for DFT-D4:
   * E. Caldeweyher, C. Bannwarth and S. Grimme, J. Chem. Phys., 2017,
     147, 034112. DOI: 10.1063/1.4993215
   * E. Caldeweyher, S. Ehlert, A. Hansen, H. Neugebauer, S. Spicher,
     C. Bannwarth and S. Grimme, J. Chem. Phys., 2019, 150, 154122.
     DOI: 10.1063/1.5090222
   * E. Caldeweyher, J.-M. Mewes, S. Ehlert and S. Grimme, Phys. Chem. Chem. Phys.
     2020, 22, 8499-8512. DOI: 10.1039/D0CP00502A
   
   for sTDA-xTB:
   * S. Grimme and C. Bannwarth, J. Chem. Phys., 2016, 145, 054103.
     DOI: 10.1063/1.4959605
   
   in the mass-spec context:
   * V. Asgeirsson, C. Bauer and S. Grimme, Chem. Sci., 2017, 8, 4879.
     DOI: 10.1039/c7sc00601b
   * J. Koopman and S. Grimme, ACS Omega 2019, 4, 12, 15120-15133.
     DOI: 10.1021/acsomega.9b02011
   
   for metadynamics refer to:
   * S. Grimme, J. Chem. Theory Comput., 2019, 155, 2847-2862
     DOI: 10.1021/acs.jctc.9b00143
   
   for SPH calculations refer to:
   * S. Spicher and S. Grimme, J. Chem. Theory Comput., 2021, 17, 1701-1714
     DOI: 10.1021/acs.jctc.0c01306
   
   with help from (in alphabetical order)
   P. Atkinson, C. Bannwarth, F. Bohle, G. Brandenburg, E. Caldeweyher
   M. Checinski, S. Dohm, S. Ehlert, S. Ehrlich, I. Gerasimov, J. Koopman
   C. Lavigne, S. Lehtola, F. März, M. Müller, F. Musil, H. Neugebauer
   J. Pisarek, C. Plett, P. Pracht, J. Seibert, P. Shushkov, S. Spicher
   M. Stahn, M. Steiner, T. Strunk, J. Stückrath, T. Rose, and J. Unsleber
   
 * started run on 2022/01/14 at 13:51:53.353     

           -------------------------------------------------
          |                Calculation Setup                |
           -------------------------------------------------

          program call               : xtb xtbopt.xyz --sp --alpb thf -P 6
          hostname                   : seskscpg007.prim.scp
          coordinate file            : xtbopt.xyz
          omp threads                :                     6
          number of atoms            :                    93
          number of electrons        :                   258
          charge                     :                     0
          spin                       :                   0.0
          first test random number   :      0.39821201043577

   ID    Z sym.   atoms
    1    7 N      1, 11
    2    6 C      2-6, 10, 12-15, 23, 24, 28, 32, 34, 38, 44, 45, 49, 53, 55,
                  59, 65, 66, 70, 74, 76, 80, 86-89
    3    1 H      7-9, 16-18, 20, 25-27, 29-31, 35-37, 39-41, 46-48, 50-52,
                  56-58, 60-62, 67-69, 71-73, 77-79, 81-85, 90
    4   77 Ir     19
    5    5 B      21, 42, 63
    6    8 O      22, 33, 43, 54, 64, 75
    7   53 I      91
    8   16 S      92
    9   17 Cl     93

molecular fragmentation (1/2 indicates fragments):
111111111111111111111111111111111111111111111111111111111111111111111111
111111111111122222222
# atoms in fragment 1/2:    85     8
 fragment masses (1/2) :      730.32      243.47
CMA distance (Bohr)    :   8.670
constraining FC (au)   :  0.0500

           -------------------------------------------------
          |                 G F N 2 - x T B                 |
           -------------------------------------------------

        Reference                      10.1021/acs.jctc.8b01176
      * Hamiltonian:
        H0-scaling (s, p, d)           1.850000    2.230000    2.230000
        zeta-weighting                 0.500000
      * Dispersion:
        s8                             2.700000
        a1                             0.520000
        a2                             5.000000
        s9                             5.000000
      * Repulsion:
        kExp                           1.500000    1.000000
        rExp                           1.000000
      * Coulomb:
        alpha                          2.000000
        third order                    shell-resolved
        anisotropic                    true
        a3                             3.000000
        a5                             4.000000
        cn-shift                       1.200000
        cn-exp                         4.000000
        max-rad                        5.000000

      * Solvation model:               ALPB
        Solvent                        thf
        Parameter file                 internal GFN2-xTB/ALPB
        Dielectric constant                7.6000E+00
        Reference state                gsolv [1 M gas/solution]
        Free energy shift                  5.3248E-03 Eh       3.3414E+00 kcal/mol
        Temperature                        2.9815E+02 K
        Density                            8.8300E-01 kg/L
        Solvent mass                       7.2106E+01 g/mol
        Interaction kernel             P16
        Born radius scaling (c1)           1.7311E+00
        Born radii integrator          GBOBC
        Born offset                        0.0000E+00 a0       0.0000E+00 AA
        H-bond correction              true
        Ion screening                  false
        Surface tension                    1.0000E-05 Eh       1.5569E+01 dyn/cm
        Grid points                               230 per atom
q/qsh data taken from xtbrestart
CAMM data taken from xtbrestart

          ...................................................
          :                      SETUP                      :
          :.................................................:
          :  # basis functions                 258          :
          :  # atomic orbitals                 254          :
          :  # shells                          144          :
          :  # electrons                       258          :
          :  max. iterations                   250          :
          :  Hamiltonian                  GFN2-xTB          :
          :  restarted?                       true          :
          :  GBSA solvation                   true          :
          :  PC potential                    false          :
          :  electronic temp.          300.0000000     K    :
          :  accuracy                    1.0000000          :
          :  -> integral cutoff          0.2500000E+02      :
          :  -> integral neglect         0.1000000E-07      :
          :  -> SCF convergence          0.1000000E-05 Eh   :
          :  -> wf. convergence          0.1000000E-03 e    :
          :  Broyden damping             0.4000000          :
          ...................................................

 iter      E             dE          RMSdq      gap      omega  full diag
   1   -143.3990273 -0.143399E+03  0.849E-05    0.91       0.0  T
   2   -143.3990273  0.234064E-08  0.175E-04    0.91      59.1  T
   3   -143.3990273 -0.282128E-08  0.422E-05    0.91     245.9  T

   *** convergence criteria satisfied after 3 iterations ***

         #    Occupation            Energy/Eh            Energy/eV
      -------------------------------------------------------------
         1        2.0000           -1.0710572             -29.1449
       ...           ...                  ...                  ...
       123        2.0000           -0.3773924             -10.2694
       124        2.0000           -0.3591633              -9.7733
       125        2.0000           -0.3429836              -9.3331
       126        2.0000           -0.3347283              -9.1084
       127        2.0000           -0.3317212              -9.0266
       128        2.0000           -0.3222265              -8.7682
       129        2.0000           -0.3190702              -8.6823 (HOMO)
       130                         -0.2854587              -7.7677 (LUMO)
       131                         -0.2574618              -7.0059
       132                         -0.2546455              -6.9293
       133                         -0.2512295              -6.8363
       134                         -0.2308781              -6.2825
       ...                                ...                  ...
       254                          3.8293030             104.2006
      -------------------------------------------------------------
                  HL-Gap            0.0336115 Eh            0.9146 eV
             Fermi-level           -0.3022476 Eh           -8.2246 eV

 SCC (total)                   0 d,  0 h,  0 min,  0.091 sec
 SCC setup                      ...        0 min,  0.003 sec (  3.359%)
 Dispersion                     ...        0 min,  0.002 sec (  2.428%)
 classical contributions        ...        0 min,  0.000 sec (  0.145%)
 integral evaluation            ...        0 min,  0.011 sec ( 12.292%)
 iterations                     ...        0 min,  0.037 sec ( 41.006%)
 molecular gradient             ...        0 min,  0.036 sec ( 39.961%)
 printout                       ...        0 min,  0.001 sec (  0.733%)

         :::::::::::::::::::::::::::::::::::::::::::::::::::::
         ::                     SUMMARY                     ::
         :::::::::::::::::::::::::::::::::::::::::::::::::::::
         :: total energy            -141.730975796499 Eh    ::
         :: total w/o Gsasa/hb      -141.690658185063 Eh    ::
         :: gradient norm              0.031569368411 Eh/a0 ::
         :: HOMO-LUMO gap              0.914614832225 eV    ::
         ::.................................................::
         :: SCC energy              -143.399027254089 Eh    ::
         :: -> isotropic ES            0.237169513284 Eh    ::
         :: -> anisotropic ES          0.000616545838 Eh    ::
         :: -> anisotropic XC          0.032439888025 Eh    ::
         :: -> dispersion             -0.141578392002 Eh    ::
         :: -> Gsolv                  -0.050006658766 Eh    ::
         ::    -> Gelec               -0.009689047330 Eh    ::
         ::    -> Gsasa               -0.043223275007 Eh    ::
         ::    -> Ghb                 -0.002419151874 Eh    ::
         ::    -> Gshift               0.005324815444 Eh    ::
         :: repulsion energy           1.659323948379 Eh    ::
         :: add. restraining           0.000000000000 Eh    ::
         :: total charge               0.000000001499 e     ::
         :::::::::::::::::::::::::::::::::::::::::::::::::::::

           -------------------------------------------------
          |                Property Printout                |
           -------------------------------------------------

    * Orbital Energies and Occupations

         #    Occupation            Energy/Eh            Energy/eV
      -------------------------------------------------------------
         1        2.0000           -1.0710572             -29.1449
       ...           ...                  ...                  ...
       117        2.0000           -0.4007589             -10.9052
       118        2.0000           -0.3973278             -10.8118
       119        2.0000           -0.3950078             -10.7487
       120        2.0000           -0.3931408             -10.6979
       121        2.0000           -0.3879206             -10.5559
       122        2.0000           -0.3835561             -10.4371
       123        2.0000           -0.3773924             -10.2694
       124        2.0000           -0.3591633              -9.7733
       125        2.0000           -0.3429836              -9.3331
       126        2.0000           -0.3347283              -9.1084
       127        2.0000           -0.3317212              -9.0266
       128        2.0000           -0.3222265              -8.7682
       129        2.0000           -0.3190702              -8.6823 (HOMO)
       130                         -0.2854587              -7.7677 (LUMO)
       131                         -0.2574618              -7.0059
       132                         -0.2546455              -6.9293
       133                         -0.2512295              -6.8363
       134                         -0.2308781              -6.2825
       135                         -0.2189847              -5.9589
       136                         -0.2132518              -5.8029
       137                         -0.1991709              -5.4197
       138                         -0.1719231              -4.6783
       139                         -0.1567052              -4.2642
       140                         -0.1512354              -4.1153
       ...                                ...                  ...
       254                          3.8293030             104.2006
      -------------------------------------------------------------
                  HL-Gap            0.0336115 Eh            0.9146 eV
             Fermi-level           -0.3022476 Eh           -8.2246 eV

     #   Z          covCN         q      C6AA      α(0)
     1   7 N        2.543    -0.125    23.743     7.237
     2   6 C        2.955     0.078    26.253     8.404
     3   6 C        2.918    -0.042    29.035     8.836
     4   6 C        2.924    -0.020    28.511     8.756
     5   6 C        2.915    -0.041    29.030     8.835
     6   6 C        2.893     0.050    26.872     8.499
     7   1 H        0.926     0.055     2.263     2.352
     8   1 H        0.926     0.061     2.189     2.313
     9   1 H        0.926     0.049     2.338     2.391
    10   6 C        2.953     0.074    26.342     8.418
    11   7 N        2.546    -0.133    23.921     7.264
    12   6 C        2.890     0.043    27.029     8.524
    13   6 C        2.915    -0.044    29.082     8.843
    14   6 C        2.923    -0.023    28.575     8.766
    15   6 C        2.918    -0.045    29.112     8.848
    16   1 H        0.926     0.048     2.339     2.391
    17   1 H        0.926     0.053     2.283     2.363
    18   1 H        0.926     0.076     2.026     2.226
    19  77 Ir       5.924    -0.147   387.145    36.386
    20   1 H        0.977     0.091     1.863     2.133
    21   5 B        2.635     0.409    15.927     6.737
    22   8 O        1.638    -0.406    20.979     6.183
    23   6 C        3.837     0.130    18.442     6.109
    24   6 C        3.755    -0.123    22.904     6.824
    25   1 H        0.925     0.056     2.247     2.344
    26   1 H        0.925     0.047     2.361     2.403
    27   1 H        0.925     0.052     2.295     2.369
    28   6 C        3.754    -0.109    22.643     6.785
    29   1 H        0.925     0.049     2.327     2.385
    30   1 H        0.925     0.042     2.417     2.431
    31   1 H        0.925     0.026     2.644     2.543
    32   6 C        3.843     0.131    18.424     6.106
    33   8 O        1.637    -0.406    20.967     6.181
    34   6 C        3.755    -0.123    22.912     6.825
    35   1 H        0.925     0.053     2.281     2.362
    36   1 H        0.925     0.049     2.339     2.391
    37   1 H        0.925     0.051     2.306     2.375
    38   6 C        3.754    -0.120    22.857     6.817
    39   1 H        0.925     0.046     2.377     2.411
    40   1 H        0.925     0.055     2.261     2.351
    41   1 H        0.925     0.047     2.356     2.400
    42   5 B        2.618     0.407    16.035     6.777
    43   8 O        1.637    -0.373    20.351     6.089
    44   6 C        3.833     0.129    18.467     6.114
    45   6 C        3.755    -0.132    23.095     6.852
    46   1 H        0.925     0.064     2.157     2.297
    47   1 H        0.925     0.061     2.189     2.314
    48   1 H        0.925     0.053     2.280     2.361
    49   6 C        3.755    -0.122    22.899     6.823
    50   1 H        0.925     0.050     2.322     2.383
    51   1 H        0.925     0.049     2.335     2.389
    52   1 H        0.925     0.051     2.305     2.374
    53   6 C        3.827     0.129    18.467     6.115
    54   8 O        1.637    -0.390    20.659     6.135
    55   6 C        3.755    -0.122    22.902     6.824
    56   1 H        0.925     0.051     2.312     2.378
    57   1 H        0.925     0.052     2.298     2.371
    58   1 H        0.925     0.050     2.318     2.381
    59   6 C        3.755    -0.122    22.902     6.824
    60   1 H        0.925     0.049     2.328     2.386
    61   1 H        0.925     0.055     2.260     2.351
    62   1 H        0.925     0.048     2.343     2.394
    63   5 B        2.628     0.405    16.008     6.761
    64   8 O        1.644    -0.361    20.113     6.054
    65   6 C        3.833     0.125    18.527     6.124
    66   6 C        3.755    -0.136    23.167     6.863
    67   1 H        0.925     0.059     2.209     2.324
    68   1 H        0.925     0.065     2.146     2.291
    69   1 H        0.925     0.056     2.248     2.344
    70   6 C        3.755    -0.133    23.112     6.855
    71   1 H        0.925     0.067     2.116     2.275
    72   1 H        0.925     0.054     2.268     2.355
    73   1 H        0.925     0.053     2.281     2.362
    74   6 C        3.831     0.127    18.496     6.119
    75   8 O        1.636    -0.380    20.484     6.109
    76   6 C        3.755    -0.126    22.977     6.835
    77   1 H        0.925     0.054     2.265     2.353
    78   1 H        0.925     0.054     2.276     2.359
    79   1 H        0.925     0.057     2.232     2.336
    80   6 C        3.755    -0.124    22.932     6.828
    81   1 H        0.925     0.040     2.452     2.449
    82   1 H        0.925     0.052     2.293     2.368
    83   1 H        0.925     0.058     2.226     2.333
    84   1 H        0.926     0.057     2.236     2.338
    85   1 H        0.926     0.052     2.289     2.366
    86   6 C        3.053    -0.052    29.231     8.867
    87   6 C        3.137    -0.052    29.046     8.821
    88   6 C        2.992     0.034    27.233     8.560
    89   6 C        2.894     0.084    26.118     8.379
    90   1 H        0.926     0.050     2.318     2.381
    91  53 I        1.364    -0.080   377.882    33.557
    92  16 S        2.623    -0.030   142.285    20.076
    93  17 Cl       1.004    -0.181   104.855    15.666

 Mol. C6AA /au·bohr⁶  :     112863.544680
 Mol. C8AA /au·bohr⁸  :    3486390.945669
 Mol. α(0) /au        :        525.760575


Wiberg/Mayer (AO) data.
largest (>0.10) Wiberg bond orders for each atom

 ---------------------------------------------------------------------------
     #   Z sym  total        # sym  WBO       # sym  WBO       # sym  WBO
 ---------------------------------------------------------------------------
     1   7 N    3.394 --     6 C    1.391     2 C    1.317    19 Ir   0.428
     2   6 C    3.978 --     3 C    1.352     1 N    1.317    10 C    1.088
     3   6 C    3.988 --     4 C    1.480     2 C    1.352     9 H    0.961
                             6 C    0.106
     4   6 C    3.984 --     3 C    1.480     5 C    1.388    84 H    0.968
     5   6 C    3.979 --     6 C    1.457     4 C    1.388     8 H    0.968
     6   6 C    3.977 --     5 C    1.457     1 N    1.391     7 H    0.956
                             3 C    0.106
     7   1 H    0.997 --     6 C    0.956
     8   1 H    0.995 --     5 C    0.968
     9   1 H    0.997 --     3 C    0.961
    10   6 C    3.978 --    15 C    1.357    11 N    1.308     2 C    1.088
    11   7 N    3.394 --    12 C    1.388    10 C    1.308    19 Ir   0.414
    12   6 C    3.973 --    13 C    1.455    11 N    1.388    18 H    0.947
                            15 C    0.105
    13   6 C    3.981 --    12 C    1.455    14 C    1.390    17 H    0.969
    14   6 C    3.983 --    15 C    1.475    13 C    1.390    85 H    0.969
    15   6 C    3.988 --    14 C    1.475    10 C    1.357    16 H    0.961
                            12 C    0.105
    16   1 H    0.997 --    15 C    0.961
    17   1 H    0.996 --    13 C    0.969
    18   1 H    0.994 --    12 C    0.947
    19  77 Ir   5.150 --    42 B    0.853    63 B    0.851    21 B    0.728
                            86 C    0.576    20 H    0.574     1 N    0.428
                            11 N    0.414
    20   1 H    0.989 --    19 Ir   0.574    86 C    0.316
    21   5 B    3.275 --    33 O    1.112    22 O    1.101    19 Ir   0.728
    22   8 O    2.197 --    21 B    1.101    23 C    0.939
    23   6 C    3.942 --    24 C    0.997    28 C    0.991    32 C    0.941
                            22 O    0.939
    24   6 C    3.993 --    23 C    0.997    26 H    0.983    27 H    0.983
                            25 H    0.982
    25   1 H    0.997 --    24 C    0.982
    26   1 H    0.997 --    24 C    0.983
    27   1 H    0.997 --    24 C    0.983
    28   6 C    3.997 --    23 C    0.991    31 H    0.985    30 H    0.984
                            29 H    0.984
    29   1 H    0.997 --    28 C    0.984
    30   1 H    0.998 --    28 C    0.984
    31   1 H    0.999 --    28 C    0.985
    32   6 C    3.938 --    38 C    0.997    34 C    0.991    23 C    0.941
                            33 O    0.935
    33   8 O    2.200 --    21 B    1.112    32 C    0.935
    34   6 C    3.993 --    32 C    0.991    36 H    0.983    37 H    0.982
                            35 H    0.981
    35   1 H    0.997 --    34 C    0.981
    36   1 H    0.997 --    34 C    0.983
    37   1 H    0.997 --    34 C    0.982
    38   6 C    3.994 --    32 C    0.997    41 H    0.983    39 H    0.983
                            40 H    0.982
    39   1 H    0.998 --    38 C    0.983
    40   1 H    0.997 --    38 C    0.982
    41   1 H    0.997 --    38 C    0.983
    42   5 B    3.342 --    43 O    1.138    54 O    1.107    19 Ir   0.853
    43   8 O    2.245 --    42 B    1.138    44 C    0.932
    44   6 C    3.933 --    45 C    0.997    49 C    0.991    53 C    0.938
                            43 O    0.932
    45   6 C    3.990 --    44 C    0.997    48 H    0.982    47 H    0.981
                            46 H    0.977
    46   1 H    0.996 --    45 C    0.977
    47   1 H    0.996 --    45 C    0.981
    48   1 H    0.996 --    45 C    0.982
    49   6 C    3.993 --    44 C    0.991    50 H    0.983    51 H    0.983
                            52 H    0.979
    50   1 H    0.996 --    49 C    0.983
    51   1 H    0.997 --    49 C    0.983
    52   1 H    0.997 --    49 C    0.979
    53   6 C    3.935 --    55 C    0.996    59 C    0.993    44 C    0.938
                            54 O    0.930
    54   8 O    2.224 --    42 B    1.107    53 C    0.930
    55   6 C    3.994 --    53 C    0.996    57 H    0.983    58 H    0.983
                            56 H    0.983
    56   1 H    0.997 --    55 C    0.983
    57   1 H    0.997 --    55 C    0.983
    58   1 H    0.996 --    55 C    0.983
    59   6 C    3.994 --    53 C    0.993    62 H    0.983    61 H    0.982
                            60 H    0.978
    60   1 H    0.998 --    59 C    0.978
    61   1 H    0.996 --    59 C    0.982
    62   1 H    0.997 --    59 C    0.983
    63   5 B    3.372 --    75 O    1.122    64 O    1.122    19 Ir   0.851
    64   8 O    2.264 --    63 B    1.122    65 C    0.930
    65   6 C    3.933 --    70 C    0.997    66 C    0.992    74 C    0.938
                            64 O    0.930
    66   6 C    3.990 --    65 C    0.992    69 H    0.982    67 H    0.979
                            68 H    0.977
    67   1 H    0.996 --    66 C    0.979
    68   1 H    0.996 --    66 C    0.977
    69   1 H    0.996 --    66 C    0.982
    70   6 C    3.991 --    65 C    0.997    72 H    0.983    73 H    0.982
                            71 H    0.981
    71   1 H    0.995 --    70 C    0.981
    72   1 H    0.996 --    70 C    0.983
    73   1 H    0.997 --    70 C    0.982
    74   6 C    3.931 --    76 C    0.997    80 C    0.992    65 C    0.938
                            75 O    0.930
    75   8 O    2.235 --    63 B    1.122    74 C    0.930
    76   6 C    3.992 --    74 C    0.997    78 H    0.982    77 H    0.982
                            79 H    0.982
    77   1 H    0.996 --    76 C    0.982
    78   1 H    0.997 --    76 C    0.982
    79   1 H    0.997 --    76 C    0.982
    80   6 C    3.994 --    74 C    0.992    81 H    0.983    82 H    0.983
                            83 H    0.983
    81   1 H    0.998 --    80 C    0.983
    82   1 H    0.997 --    80 C    0.983
    83   1 H    0.996 --    80 C    0.983
    84   1 H    0.996 --     4 C    0.968
    85   1 H    0.996 --    14 C    0.969
    86   6 C    3.930 --    88 C    1.573    87 C    1.201    19 Ir   0.576
                            20 H    0.316
    87   6 C    3.980 --    89 C    1.589    86 C    1.201    90 H    0.954
                            92 S    0.102
    88   6 C    3.898 --    86 C    1.573    92 S    1.117    91 I    0.980
    89   6 C    3.867 --    87 C    1.589    92 S    1.145    93 Cl   0.973
    90   1 H    0.997 --    87 C    0.954
    91  53 I    1.164 --    88 C    0.980
    92  16 S    2.589 --    89 C    1.145    88 C    1.117    87 C    0.102
    93  17 Cl   1.109 --    89 C    0.973
 ---------------------------------------------------------------------------

Topologies differ in total number of bonds
Writing topology from bond orders to xtbtopo.mol

molecular dipole:
                 x           y           z       tot (Debye)
 q only:        0.858       0.838      -2.628
   full:       -2.061       1.283      -3.559      10.951
molecular quadrupole (traceless):
                xx          xy          yy          xz          yz          zz
 q only:       19.661      -2.799       8.108      11.227      24.078     -27.770
  q+dip:       11.881       7.583      17.113     -11.534      32.367     -28.994
   full:       12.338       9.210      17.467     -14.433      29.291     -29.805


           -------------------------------------------------
          | TOTAL ENERGY             -141.730975796499 Eh   |
          | GRADIENT NORM               0.031569368411 Eh/α |
          | HOMO-LUMO GAP               0.914614832225 eV   |
           -------------------------------------------------

------------------------------------------------------------------------
 * finished run on 2022/01/14 at 13:51:53.477     
------------------------------------------------------------------------
 total:
 * wall-time:     0 d,  0 h,  0 min,  0.125 sec
 *  cpu-time:     0 d,  0 h,  0 min,  0.725 sec
 * ratio c/w:     5.824 speedup
 SCF:
 * wall-time:     0 d,  0 h,  0 min,  0.092 sec
 *  cpu-time:     0 d,  0 h,  0 min,  0.551 sec
 * ratio c/w:     5.955 speedup

