21
 energy: -28.971718361390 gnorm: 0.035883634897 xtb: 6.4.0 (f63f532)
C         2.34300000000000    1.16930000000000    0.04599000000000
C         3.12351000000000    0.00890000000000    0.06041000000000
C         2.51757000000000   -1.24034000000000    0.02211000000000
C         1.12894000000000   -1.32554000000000   -0.02496000000000
C         0.34249000000000   -0.16325000000000   -0.04283000000000
Br       -1.54126000000000   -0.42799000000000   -0.08297000000000
C         0.93639000000000    1.11595000000000   -0.02271000000000
C         0.12690000000000    2.41115000000000   -0.02806000000000
C        -0.15076000000000    2.88392000000000    1.40207000000000
C         0.77061000000000    3.55775000000000   -0.82392000000000
H         2.86271000000000    2.12333000000000    0.09725000000000
H         4.20672000000000    0.08686000000000    0.10811000000000
H         3.11985000000000   -2.14114000000000    0.03547000000000
H         0.66483000000000   -2.31043000000000   -0.04492000000000
H        -0.83389000000000    2.23241000000000   -0.52280000000000
H         0.77799000000000    3.01402000000000    1.96876000000000
H        -0.77593000000000    2.16664000000000    1.94417000000000
H        -0.67694000000000    3.84479000000000    1.39818000000000
H         1.71016000000000    3.89873000000000   -0.37769000000000
H         0.10080000000000    4.42523000000000   -0.85103000000000
H         0.97010000000000    3.25799000000000   -1.85846000000000
21
 energy: -28.974643133933 gnorm: 0.012631248162 xtb: 6.4.0 (f63f532)
C         2.34210148059137    1.17340585447802    0.04735647260245
C         3.11490345025983    0.02159809361354    0.06403211396400
C         2.50924311406926   -1.22247635637321    0.02443469638985
C         1.12887681463346   -1.30062573363603   -0.02130443108334
C         0.36488246778735   -0.13898188739944   -0.03983330468759
Br       -1.53345233234346   -0.34704369733014   -0.09657747197615
C         0.94996739542836    1.12889730016334   -0.01878536897277
C         0.12657639912696    2.40322525778624   -0.02868427345090
C        -0.14685858435804    2.86345502840887    1.40601189519532
C         0.77873646271808    3.53723825717316   -0.82689443789917
H         2.84719414907986    2.12652934029173    0.08719943100756
H         4.19239238453567    0.09867867252823    0.10930464120918
H         3.10253267680021   -2.12518600407588    0.03425263847892
H         0.64878440342933   -2.27064584103630   -0.04352979823792
H        -0.83657245806648    2.18747375878703   -0.50688186044314
H         0.78557088694070    3.00242892205830    1.95409541778625
H        -0.75752892507714    2.13850338691488    1.94454719917018
H        -0.68128106727487    3.81342393546756    1.39442661198912
H         1.70602999374218    3.88134379763139   -0.37068439662839
H         0.09601165661884    4.38695255145701   -0.85857464904508
H         0.98567963135854    3.23008536309171   -1.85174112536837
21
 energy: -28.975029616291 gnorm: 0.004511424895 xtb: 6.4.0 (f63f532)
C         2.34384137371487    1.17826101555217    0.04659730630638
C         3.11154464682524    0.02851250422632    0.06619621820529
C         2.50241586828460   -1.21333515145353    0.02809407441609
C         1.12352765021751   -1.28887297915101   -0.02014665871483
C         0.37260903227599   -0.12634573162525   -0.04247367604184
Br       -1.53402131806781   -0.33713482059242   -0.09565094269683
C         0.95605135714222    1.13759733926896   -0.02086339882860
C         0.13202432318717    2.40374593182233   -0.03089854926479
C        -0.14041516110553    2.85263153580418    1.40858734645651
C         0.77883724345039    3.53460169486444   -0.83003698946403
H         2.84101816562305    2.13319193924491    0.08330802200550
H         4.18693023783407    0.10379422069457    0.11242999369052
H         3.09014497162786   -2.11787372404502    0.03800659316419
H         0.63147833780581   -2.24975986471095   -0.04264356845274
H        -0.83049974661077    2.17892197908257   -0.50383382985424
H         0.79421655730728    2.99594751395329    1.94692604194354
H        -0.73654155625385    2.11331443858908    1.93971327628712
H        -0.68741705890398    3.79278097053484    1.40351593473154
H         1.69605886769257    3.88026967320787   -0.36130986782116
H         0.09073464041803    4.37626888533691   -0.87866171888356
H         1.00125156753526    3.21176262939575   -1.84468560718405
21
 energy: -28.975126012789 gnorm: 0.002090850078 xtb: 6.4.0 (f63f532)
C         2.34493164566552    1.18072188149334    0.04393639332710
C         3.11113687504274    0.03010868607122    0.06696847395065
C         2.50023842285501   -1.21126157586523    0.03014305739894
C         1.12064107131373   -1.28643506899716   -0.01910869828385
C         0.37316764685594   -0.12239314017325   -0.04255369247886
Br       -1.53924351831495   -0.33034120241927   -0.09835709541223
C         0.95624240723950    1.14113407277080   -0.02415019779350
C         0.13210171428734    2.40476450757235   -0.03320358050528
C        -0.13591091049774    2.84659739047678    1.41044431664166
C         0.77853512205024    3.53573761617379   -0.83163711447005
H         2.83935437882245    2.13754800869094    0.07934397461260
H         4.18644514336831    0.10397976903131    0.11543942398945
H         3.08620625282165   -2.11667637808522    0.04329112646078
H         0.62376938446585   -2.24412876664254   -0.04048076366908
H        -0.83112054840797    2.17967498796998   -0.50325597256643
H         0.80110537140699    2.99615969926772    1.94247706872046
H        -0.71902614915741    2.09583244205259    1.93993462451565
H        -0.69397974350655    3.77981278386890    1.41398097820327
H         1.68727491172000    3.89129640166955   -0.35374573833455
H         0.08532532572483    4.37160575466943   -0.89703166555765
H         1.01659519624452    3.20454213040400   -1.84026491874909
21
 energy: -28.975206529356 gnorm: 0.002982211127 xtb: 6.4.0 (f63f532)
C         2.34478157217979    1.18291471430464    0.03851870288884
C         3.10913924216866    0.03077281806429    0.06789170556733
C         2.49650861829806   -1.21015116825816    0.03519093773985
C         1.11627357119545   -1.28538744676099   -0.01774869886479
C         0.37170579519142   -0.11932231227960   -0.04721684100311
Br       -1.54634678713612   -0.32825138897859   -0.10075091316240
C         0.95441327579368    1.14418402201888   -0.03144912500361
C         0.13234773975171    2.40750883583751   -0.03644956507987
C        -0.12869685137133    2.83860816153571    1.41287504689994
C         0.77873630269776    3.54009375892114   -0.83299006406899
H         2.83710798721509    2.14171094100915    0.07048192303326
H         4.18478324988586    0.10267118588002    0.11908023724275
H         3.08119677422465   -2.11643561679139    0.05375288606429
H         0.61531989443986   -2.24061124271798   -0.03640764460313
H        -0.83254034843970    2.18661611873650   -0.50332923103467
H         0.81204193842711    3.00239747429432    1.93469037781590
H        -0.68917394883361    2.07057744338646    1.94340040160918
H        -0.70596064174602    3.76014123931668    1.42993624736776
H         1.67148742826231    3.91609707791837   -0.33849384952511
H         0.07497653395874    4.36502664756549   -0.92660869160192
H         1.04568865383661    3.19911873699759   -1.83220384228149
21
 energy: -28.975237159288 gnorm: 0.002896494190 xtb: 6.4.0 (f63f532)
C         2.34365191137651    1.18266381474009    0.03452251472271
C         3.10755334503067    0.03012733881650    0.06681927285331
C         2.49474900274550   -1.21082165702584    0.03698176538749
C         1.11456358298506   -1.28624326488713   -0.01701489137004
C         0.36990374958704   -0.11973378775902   -0.04777082801299
Br       -1.54861164299842   -0.32707422910026   -0.10633790304586
C         0.95278085437713    1.14358685514502   -0.03436751020354
C         0.13212270337112    2.40822653181121   -0.03728790154817
C        -0.12489816811280    2.83624849708860    1.41341378213502
C         0.77874512313707    3.54252708624782   -0.83207974262246
H         2.83608677229185    2.14159969749581    0.06429135894706
H         4.18338267036042    0.10147030817815    0.11951333768703
H         3.07959756821843   -2.11712909653872    0.06001564982857
H         0.61388694318924   -2.24181414558689   -0.03364252513824
H        -0.83412540699568    2.19022332536051   -0.50293867024534
H         0.81708270677649    3.01091551693736    1.92994525402150
H        -0.67296181547529    2.06174019218018    1.94724734431253
H        -0.71267186574264    3.75095679638622    1.43528514691783
H         1.66140550336955    3.93062936945565   -0.32830045572537
H         0.06911828485933    4.36064104400110   -0.94017472803062
H         1.06242817764938    3.19953980705365   -1.82595027087042
21
 energy: -28.975261704022 gnorm: 0.001526788068 xtb: 6.4.0 (f63f532)
C         2.34209254822674    1.18166154989213    0.03088056508052
C         3.10578098518515    0.02903529471403    0.06552231977986
C         2.49287289409266   -1.21195598015380    0.03938107871019
C         1.11303663435138   -1.28716361021547   -0.01622857147297
C         0.36753601740406   -0.12077801777578   -0.05065538351444
Br       -1.54890509012275   -0.32743176443504   -0.11040517117640
C         0.95135032386853    1.14206664013554   -0.03723100987268
C         0.13209206047100    2.40862403926480   -0.03724460077847
C        -0.12233466847169    2.83551356037434    1.41342161433641
C         0.77945638200961    3.54448855450683   -0.82994941628014
H         2.83561779026143    2.13996042176028    0.05747890301745
H         4.18177829190320    0.10008103012052    0.11711952552874
H         3.07817852161832   -2.11804945969971    0.06529603545324
H         0.61416422611029   -2.24408356744974   -0.03150299378117
H        -0.83520176550106    2.19317801423977   -0.50264501025088
H         0.82005220660469    3.02301905922041    1.92488414762653
H        -0.65824816604452    2.05673711890487    1.95249843233263
H        -0.72018344266332    3.74335766962707    1.43709548928720
H         1.65129143153672    3.94351715164601   -0.31655885163560
H         0.06395478357087    4.35511644608477   -0.95068734223839
H         1.07940803558865    3.20138584923820   -1.81829976015162
21
 energy: -28.975269009467 gnorm: 0.000796559313 xtb: 6.4.0 (f63f532)
C         2.34145733209064    1.18066620760045    0.02876492474024
C         3.10494852995585    0.02806825111789    0.06293183540617
C         2.49145994259367   -1.21268409439083    0.03869969210060
C         1.11187488511563   -1.28703415968083   -0.01604101489304
C         0.36578984296425   -0.12108459649315   -0.04965146738690
Br       -1.54784488709985   -0.32691271732585   -0.11331346187311
C         0.95128601314875    1.14110500019169   -0.03641973382226
C         0.13255193997709    2.40848091573048   -0.03632910222478
C        -0.12205858895320    2.83655362730129    1.41328451678312
C         0.78059814151155    3.54498850559360   -0.82776277030163
H         2.83600799157347    2.13815796263669    0.05352296971935
H         4.18089796747257    0.09883456204930    0.11305937799723
H         3.07659272865161   -2.11875333066297    0.06633880897328
H         0.61428916129752   -2.24487823946604   -0.03050962994450
H        -0.83465922639807    2.19253361360016   -0.50222345343440
H         0.81992696295267    3.03537448257529    1.92092977238317
H        -0.64854223020838    2.05497556277379    1.95727842548490
H        -0.72831567978826    3.73884173215260    1.43513700615889
H         1.64382236316085    3.95059310910907   -0.30605629629906
H         0.06073289191038    4.34994019532792   -0.95815965251281
H         1.09297391807122    3.20051341025946   -1.81131074705447
21
 energy: -28.975271092416 gnorm: 0.000393432999 xtb: 6.4.0 (f63f532)
C         2.34198632459201    1.18063899791050    0.02941914121508
C         3.10548138161093    0.02790113504312    0.06269680844571
C         2.49167128479338   -1.21267464735616    0.03806355138449
C         1.11192368317638   -1.28671085692025   -0.01593179292015
C         0.36605345876370   -0.12074538616165   -0.04989088818470
Br       -1.54775035949484   -0.32621674647662   -0.10902889277637
C         0.95190170752098    1.14147641876492   -0.03593017447810
C         0.13263961061768    2.40821705212495   -0.03609900950074
C        -0.12363196723324    2.83724141654920    1.41327761312681
C         0.78147436522289    3.54427397592433   -0.82740055349724
H         2.83639123534156    2.13828002139292    0.05436412387517
H         4.18144167936566    0.09860431969141    0.11122520376416
H         3.07644568797874   -2.11892920545275    0.06331486829400
H         0.61383206792138   -2.24418223944984   -0.03136082689419
H        -0.83384834823553    2.19147475520490   -0.50277820508646
H         0.81762991700772    3.03735023633939    1.92126637477554
H        -0.64969890822173    2.05556753806085    1.95741717859074
H        -0.73093382186565    3.73883338524737    1.43386601334983
H         1.64420133942688    3.94969945865299   -0.30503558510339
H         0.06205384015368    4.34926994476279   -0.95896881287651
H         1.09452582155736    3.19891042614765   -1.81031613550369
21
 energy: -28.975272657798 gnorm: 0.000341957737 xtb: 6.4.0 (f63f532)
C         2.34268813632645    1.18053109047692    0.02998165114126
C         3.10610097947419    0.02755086162715    0.06146382623421
C         2.49199667606556   -1.21280512211145    0.03584066360592
C         1.11202158550025   -1.28656074093765   -0.01602988894309
C         0.36643800615588   -0.12048350203546   -0.04760063265386
Br       -1.54770146957567   -0.32574357484906   -0.10490323029146
C         0.95254132765499    1.14186068995575   -0.03416561798002
C         0.13299354488550    2.40815978418078   -0.03577734741963
C        -0.12568787955595    2.83800323461676    1.41323619634239
C         0.78257335296024    3.54376177622576   -0.82711996097901
H         2.83702175123444    2.13829559418948    0.05553842966550
H         4.18207798234932    0.09811864168473    0.10936787532258
H         3.07633531781926   -2.11937393731870    0.05946443650218
H         0.61323473314939   -2.24360315592358   -0.03135943310379
H        -0.83271343603764    2.19071338007804   -0.50342409158377
H         0.81466799936352    3.03991921035757    1.92195139945447
H        -0.65127599693468    2.05585846936706    1.95721445626211
H        -0.73451878189729    3.73857767394749    1.43214929340217
H         1.64481144192548    3.94935601506120   -0.30406638016410
H         0.06358372895305    4.34884551098571   -0.96025002188176
H         1.09660100018369    3.19729810042154   -1.80934162293232
21
 energy: -28.975272804462 gnorm: 0.000802182865 xtb: 6.4.0 (f63f532)
C         2.34338994806088    1.18042318304333    0.03054416106743
C         3.10672057733744    0.02720058821118    0.06023084402271
C         2.49232206733774   -1.21293559686674    0.03361777582735
C         1.11211948782413   -1.28641062495506   -0.01612798496603
C         0.36682255354807   -0.12022161790926   -0.04531037712303
Br       -1.54765257965651   -0.32527040322150   -0.10077756780656
C         0.95318094778900    1.14224496114657   -0.03240106148194
C         0.13334747915333    2.40810251623660   -0.03545568533852
C        -0.12774379187866    2.83876505268433    1.41319477955798
C         0.78367234069758    3.54324957652720   -0.82683936846079
H         2.83765226712732    2.13831116698604    0.05671273545583
H         4.18271428533297    0.09763296367805    0.10751054688100
H         3.07622494765979   -2.11981866918466    0.05561400471035
H         0.61263739837741   -2.24302407239731   -0.03135803931339
H        -0.83157852383976    2.18995200495117   -0.50406997808107
H         0.81170608171932    3.04248818437574    1.92263642413341
H        -0.65285308564764    2.05614940067326    1.95701173393349
H        -0.73810374192894    3.73832196264761    1.43043257345452
H         1.64542154442407    3.94901257146940   -0.30309717522480
H         0.06511361775241    4.34842107720862   -0.96153123088700
H         1.09867617881002    3.19568577469544   -1.80836711036094
