13
 energy: -17.196120811041 gnorm: 0.024262558543 xtb: 6.4.1 (1a32961)
C        -1.37683000000000    0.68784000000000    0.00411000000000
N        -0.05609000000000    1.05342000000000   -0.00032000000000
C         0.73366000000000   -0.07108000000000    0.00107000000000
C         2.21548000000000    0.00419000000000    0.00929000000000
C        -0.10684000000000   -1.16655000000000   -0.00401000000000
C        -1.43790000000000   -0.68665000000000    0.00055000000000
H        -2.15751000000000    1.43632000000000    0.00961000000000
H         0.28311000000000    2.00650000000000   -0.00101000000000
H         2.56817000000000    1.04059000000000    0.00262000000000
H         2.62745000000000   -0.50004000000000   -0.87056000000000
H         2.61463000000000   -0.48357000000000    0.90433000000000
H         0.20601000000000   -2.20307000000000   -0.00666000000000
H        -2.34270000000000   -1.28028000000000    0.00266000000000
13
 energy: -17.196830327571 gnorm: 0.007825049274 xtb: 6.4.1 (1a32961)
C        -1.37187314906167    0.68527039828551    0.00200221326239
N        -0.05677958677231    1.04659136562126    0.00596383348093
C         0.72841868197966   -0.07038874950928    0.00332576653988
C         2.21414829360730    0.00321665945478    0.00711543950618
C        -0.10928500798164   -1.15929968833244    0.00156246846233
C        -1.43554240291112   -0.68109551578559   -0.00048278781344
H        -2.14985451198371    1.42551359243720    0.00219439593681
H         0.28309642357608    1.99454947207322    0.00747417204914
H         2.55182624209778    1.03903323573261   -0.00049567772599
H         2.62884173956595   -0.49918323273680   -0.86782007578035
H         2.62222860074447   -0.48366925110045    0.89406865339580
H         0.19800669050540   -2.18933946333083   -0.00016777840949
H        -2.33259201336619   -1.27357882280918   -0.00306062290419
13
 energy: -17.196880666494 gnorm: 0.002210609220 xtb: 6.4.1 (1a32961)
C        -1.36863980798125    0.68567551055813    0.00252941965403
N        -0.05547301433101    1.04402027429254    0.00452357406715
C         0.72648155115724   -0.07067743091852    0.00412940991458
C         2.21415595964205    0.00438462033108    0.00822155780758
C        -0.10996320660093   -1.15883088579051    0.00021691597038
C        -1.43518259021557   -0.67945699858426    0.00016788268945
H        -2.14681031088740    1.42291393513387    0.00292714149682
H         0.28631339139803    1.99017580531247    0.00539884838371
H         2.54522484945329    1.04056674897052    0.00019574428938
H         2.62723944989184   -0.49783872957406   -0.86616657754580
H         2.62244362631780   -0.48249965145093    0.89367774211222
H         0.19406391571734   -2.18785854160768   -0.00213947844992
H        -2.32921381356140   -1.27295465667265   -0.00200218038957
13
 energy: -17.196885611760 gnorm: 0.000763714728 xtb: 6.4.1 (1a32961)
C        -1.36795214205445    0.68643848063070    0.00207912305669
N        -0.05491818974962    1.04358397603930    0.00582062615614
C         0.72616807484145   -0.07095835675885    0.00463623201405
C         2.21467219321873    0.00492915250716    0.00752123618977
C        -0.11017687179337   -1.15938542442214    0.00159436252949
C        -1.43552604827920   -0.67900513172104   -0.00073604088819
H        -2.14725747472474    1.42265675479538    0.00180087140017
H         0.28804624356251    1.98942621371042    0.00768954909756
H         2.54421358124813    1.04131078401092   -0.00066853155460
H         2.62674249814764   -0.49715198657585   -0.86728339232921
H         2.62306217829934   -0.48179994611237    0.89277013493660
H         0.19239086287531   -2.18886267275734    0.00034470849325
H        -2.32882490559174   -1.27356184334629   -0.00388887910173
13
 energy: -17.196886467012 gnorm: 0.000656921065 xtb: 6.4.1 (1a32961)
C        -1.36763942965284    0.68730502648243    0.00187194675650
N        -0.05452265713138    1.04351399013628    0.00528051296430
C         0.72615310519857   -0.07125730399882    0.00493148035006
C         2.21522166622618    0.00530420821477    0.00788640323025
C        -0.11031434744384   -1.15987096381556    0.00082186689143
C        -1.43587248959874   -0.67850005419949    0.00004029295312
H        -2.14857251593979    1.42228417902829    0.00133489067699
H         0.28971807183661    1.98915985212555    0.00739193897176
H         2.54404069923907    1.04187751064438   -0.00019924608614
H         2.62682778167673   -0.49642206270200   -0.86732208386220
H         2.62347541679280   -0.48140829780424    0.89315755736952
H         0.19069524832298   -2.19001450548913   -0.00082244901097
H        -2.32857054952636   -1.27435157862246   -0.00269311120460
