13
 energy: -17.196886467048 gnorm: 0.000656332416 xtb: 6.4.1 (1a32961)
C        -1.36763942965284    0.68730502648243    0.00187194675650
N        -0.05452265713138    1.04351399013628    0.00528051296430
C         0.72615310519857   -0.07125730399882    0.00493148035006
C         2.21522166622618    0.00530420821477    0.00788640323025
C        -0.11031434744384   -1.15987096381556    0.00082186689143
C        -1.43587248959874   -0.67850005419949    0.00004029295312
H        -2.14857251593979    1.42228417902829    0.00133489067699
H         0.28971807183661    1.98915985212555    0.00739193897176
H         2.54404069923907    1.04187751064438   -0.00019924608614
H         2.62682778167673   -0.49642206270200   -0.86732208386220
H         2.62347541679280   -0.48140829780424    0.89315755736952
H         0.19069524832298   -2.19001450548913   -0.00082244901097
H        -2.32857054952636   -1.27435157862246   -0.00269311120460
