125
 energy: -176.152640553654 gnorm: 0.137833176157 xtb: 6.4.1 (1a32961)
N        -0.96510000000000   -2.11530000000000   -0.24090000000000
C        -2.24699999999999   -1.69840000000000   -0.36220000000000
C        -3.14040000000000   -2.36820000000000   -1.21200000000000
C        -2.70220000000000   -3.47560000000000   -1.93049999999998
C        -1.37779999999999   -3.89880000000001   -1.78760000000001
C        -0.54289999999999   -3.18670000000000   -0.93510000000000
H         0.49810000000000   -3.45630000000000   -0.78940000000000
H        -0.99569999999999   -4.76030000000001   -2.32770000000000
H        -4.16500000000000   -2.02890000000001   -1.31830000000001
C        -2.62130000000000   -0.50950000000001    0.44100000000000
N        -1.62600000000000    0.07330000000000    1.16020000000000
C        -1.89680000000000    1.15240000000000    1.91690000000000
C        -3.17230000000000    1.70330000000000    1.99650000000000
C        -4.20510000000000    1.11739999999998    1.26270000000001
C        -3.92610000000000    0.00249999999998    0.47820000000000
H        -4.71960000000000   -0.46420000000001   -0.09519999999999
H        -3.34630000000000    2.57509999999999    2.62070000000000
H        -1.04450000000000    1.57420000000000    2.43690000000000
Ir        0.42150000000000   -0.81650000000000    0.91330000000000
H         0.87260000000000   -2.23030000000000    1.54050000000000
B         0.50669999999999    0.41560000000000   -0.81540000000000
O         0.19500000000000   -0.04700000000000   -2.09150000000000
C         0.00650000000000    1.10040000000000   -2.95429999999999
C         0.49020000000001    0.74740000000001   -4.35780000000000
H         1.51609999999999    0.37380000000000   -4.33700000000000
H         0.44729999999999    1.62240000000001   -5.01670000000000
H        -0.14740000000000   -0.03389999999999   -4.78430000000000
C        -1.50119999999999    1.39559999999999   -2.96669999999999
H        -1.75370000000000    2.21459999999999   -3.64850000000001
H        -2.03200000000000    0.49450000000000   -3.28929999999999
H        -1.85170000000000    1.65209999999999   -1.96220000000000
C         0.84229999999999    2.20670000000000   -2.22040000000000
O         0.75199999999999    1.78259999999999   -0.83690000000000
C         2.32930000000001    2.18620000000001   -2.59900000000000
H         2.74129999999999    1.18500000000000   -2.45750000000000
H         2.48869999999999    2.51300000000000   -3.63180000000000
H         2.87200000000000    2.86269999999999   -1.93200000000000
C         0.28440000000000    3.62290000000001   -2.33660000000000
H        -0.72650000000001    3.69040000000000   -1.92910000000000
H         0.92129999999999    4.31480000000000   -1.77610000000000
H         0.26429999999999    3.94810000000000   -3.38320000000000
B         1.56300000000000    0.60960000000000    1.84840000000001
O         2.92779999999999    0.55229999999996    2.15019999999998
C         3.36329999999999    1.88660000000000    2.50260000000000
C         4.53140000000000    1.78590000000001    3.47740000000001
H         4.27910000000001    1.16090000000000    4.33690000000000
H         5.39390000000000    1.33790000000001    2.97340000000001
H         4.82390000000000    2.77870000000000    3.83819999999999
C         3.79699999999999    2.56850000000001    1.19670000000000
H         4.20020000000000    3.57090000000000    1.37680000000000
H         4.56740000000000    1.95560000000001    0.72110000000000
H         2.95240000000000    2.63260000000000    0.50540000000000
C         2.05040000000000    2.50090000000000    3.09320000000000
O         1.03750000000001    1.81620000000002    2.31909999999998
C         1.89099999999998    4.00450000000000    2.88649999999999
H         1.87290000000000    4.25440000000000    1.82410000000000
H         0.94939999999999    4.34260000000000    3.33170000000000
H         2.71079999999999    4.55150000000000    3.36630000000000
C         1.82470000000000    2.13200000000000    4.56520000000000
H         1.92610000000000    1.05330000000000    4.71320000000000
H         2.52610000000000    2.65280000000000    5.22540000000000
H         0.80630000000000    2.41580000000000    4.84900000000000
B         2.27820000000000   -1.33090000000000    0.17410000000000
O         2.89460000000000   -2.57740000000000    0.38450000000000
C         4.26930000000000   -2.48200000000000   -0.07209999999999
C         5.10900000000000   -2.05380000000000    1.14010000000000
H         4.76350000000000   -1.08739999999999    1.51750000000000
H         4.98050000000000   -2.79470000000000    1.93590000000000
H         6.17420000000000   -1.99289999999999    0.89299999999999
C         4.71950000000001   -3.84660000000000   -0.58470000000001
H         4.75280000000001   -4.56130000000000    0.24420000000000
H         5.72330000000000   -3.78369999999999   -1.02010000000001
H         4.03500000000002   -4.23599999999999   -1.34169999999999
C         4.16440000000000   -1.36220000000000   -1.16300000000000
O         3.08520000000001   -0.55029999999995   -0.65400000000002
C         5.40720000000000   -0.48870000000000   -1.31549999999999
H         6.27320000000001   -1.09010000000001   -1.61530000000000
H         5.23299999999999    0.26930000000000   -2.08590000000001
H         5.64270000000000    0.02650000000001   -0.38240000000000
C         3.71800000000002   -1.89830000000000   -2.53110000000001
H         2.82530000000000   -2.52160000000000   -2.42740000000000
H         3.46090000000002   -1.05250000000000   -3.17550000000000
H         4.50570000000000   -2.48290000000000   -3.01790000000001
H        -3.38500000000002   -4.00130000000001   -2.59310000000001
H        -5.21400000000000    1.52079999999998    1.29959999999998
C         0.23590000000000   -1.68140000000000    2.96029999999999
C        -0.82532410440065   -2.43871492761902    3.45214827033650
C         1.49468815665379   -1.90825157352619    3.76232348525683
C        -0.81458090326513   -3.18399384685189    4.62837090401062
H        -1.71960350796273   -2.50919750854627    2.84276553637250
N         2.93307458388037   -1.92223466904729    3.49576524028570
C         1.45239862271721   -2.57337579851106    5.03020723387023
C         0.29495820098311   -3.23188956893137    5.45042893222496
H        -1.66403911868648   -3.81016219308408    4.87252958066705
O         4.00013741053374   -0.94487999860332    3.39465416787239
C         3.57593903743754   -2.70550837786647    4.46480449220306
C         2.77547486528116   -2.84626081302098    5.59195269500020
H         0.33824864239625   -3.86110925054069    6.33055215505068
Si        5.37561226048882   -0.57590872847993    4.35310321272418
C         4.95136524046402   -2.97472903191949    4.49627546851568
C         3.44027728886555   -2.97186520989563    6.83137760298103
C         6.54376026873243   -0.15391539780182    2.85736870671856
C         4.39412594731288   -0.01430397495790    5.90789067599153
C         7.00941494766289   -0.32413268380650    5.37913150336020
C         5.56798276718623   -3.12315967036845    5.72547527170208
H         5.55669831804209   -3.01282646975058    3.60434736990939
C         4.84104125405289   -2.99441649945075    6.91108902860793
H         2.87706249848048   -2.93326103866017    7.75577711686784
H         6.10396178892074    0.11933248240935    1.90265581592334
H         7.15438194549657    0.70120173112522    3.15707495915882
H         7.26130163187486   -0.94668449317396    2.64414337360750
H         4.55998170949058   -0.67267779889104    6.75332537319441
H         3.31371286715235   -0.00243287053446    5.75909291707593
H         4.67751489339217    0.98008946158802    6.25940557108087
H         7.07645898617580   -0.78093240794694    6.36088739889783
H         7.05512737212437    0.75392910369948    5.55205589210741
H         7.93849593360142   -0.56581797467366    4.86350293308746
H         6.64676574065323   -3.21994713393883    5.74516797012196
C         5.67788099465158   -2.83110120831248    8.16650284411970
C         5.78720142465782   -1.41704170594983    8.74450439458750
H         6.69922663866469   -3.13792642317903    7.91578018697420
H         5.32297855424184   -3.49237816962364    8.96121237852327
H         6.21937064963567   -0.71353162835247    8.03365922586436
H         6.45093691742477   -1.43161029004507    9.61215366449003
H         4.81991711728653   -1.02756756515198    9.06192634050534
125
 energy: -176.183388587680 gnorm: 0.102875695052 xtb: 6.4.1 (1a32961)
N        -0.96473123842117   -2.11050855996982   -0.24397198209679
C        -2.24284624232172   -1.69672667604162   -0.35940440816316
C        -3.13493822456301   -2.36911044724669   -1.20570807441552
C        -2.70207357876404   -3.47106288707196   -1.92183546770550
C        -1.38109196733140   -3.89011270727013   -1.78171101839786
C        -0.55316640835674   -3.17658300208296   -0.93590411771784
H         0.48308335495657   -3.45268800751676   -0.78852800618122
H        -1.00241910415804   -4.74921045885073   -2.31890399603256
H        -4.15607557321771   -2.03403898014314   -1.31217462803676
C        -2.61549909279056   -0.51648502010452    0.44135068418731
N        -1.62382938887622    0.06739311972733    1.15315433896598
C        -1.90156941099229    1.13909154172120    1.90240608275425
C        -3.16924313047254    1.68877789915897    1.99051519433393
C        -4.20019150733746    1.10402408365770    1.26195444053454
C        -3.91907120178971   -0.00446726170999    0.48195716448148
H        -4.71120874674607   -0.46739297523660   -0.08763733931477
H        -3.34407260908163    2.55495139359985    2.61494239760698
H        -1.05673061539385    1.56039987797180    2.42883325772886
Ir        0.42150000000000   -0.81650000000000    0.91330000000000
H         0.87260000000000   -2.23030000000000    1.54050000000000
B         0.50341864627991    0.41493478842652   -0.80112708029931
O         0.18179726853109   -0.03915094511863   -2.07430961492695
C         0.00774275385788    1.09643267175692   -2.94853933450955
C         0.48617896267366    0.74784262033348   -4.35469849056551
H         1.50649657328532    0.37347186593414   -4.33311713066610
H         0.44040240632911    1.62198967301651   -5.00520958019236
H        -0.15038169048172   -0.03051146124819   -4.77521354844292
C        -1.49922862762442    1.39461179114496   -2.96709122186983
H        -1.74585124913670    2.20840996774646   -3.64788169214020
H        -2.02895705924007    0.49662789273036   -3.28663445789712
H        -1.84564023738132    1.64748616820798   -1.96426425086608
C         0.83239653843945    2.20523070129640   -2.21600613647956
O         0.75369822705140    1.77405174977261   -0.84011466838364
C         2.31741752085193    2.18978143389807   -2.60036076328082
H         2.72489463369352    1.19099963481769   -2.45338215098213
H         2.47293382274593    2.51377538539418   -3.62900555756450
H         2.85912288260308    2.86286227252723   -1.93608256385770
C         0.27806132383422    3.62184730685926   -2.33775165179527
H        -0.72639126274379    3.68801630284211   -1.92665507821886
H         0.91501129058233    4.30657976618429   -1.77837759467717
H         0.25949779701317    3.93965979716199   -3.38060562433093
B         1.54638865381014    0.63748311243839    1.84271686435458
O         2.90651996551273    0.61674836649436    2.08443751170374
C         3.33612246940375    1.92920748790512    2.48340993070033
C         4.49366753046568    1.88865347921428    3.45708497995248
H         4.24014773649085    1.26929142409600    4.29453249429791
H         5.33780087583258    1.45120522627291    2.96092137021002
H         4.79052405113226    2.86261397580271    3.82905172466460
C         3.78989814664883    2.59392858950846    1.18552860859438
H         4.19682639409775    3.58550173190628    1.37220343941558
H         4.55628620406938    1.97006837181374    0.72589361642918
H         2.94644284325573    2.64047816931619    0.49986518463685
C         2.02936187823997    2.51776555307799    3.08436267964126
O         1.01427993965163    1.82309444988834    2.33286845675727
C         1.88064153165523    4.01791964943583    2.88833617059147
H         1.86205014676566    4.25836852007368    1.82911642740823
H         0.94420249291069    4.34807653599226    3.33475272407382
H         2.70545478114205    4.54756616194733    3.36565674464105
C         1.82034901749059    2.14324566209365    4.55746595058518
H         1.92150514425125    1.06709426527825    4.69107712748823
H         2.52474279460764    2.65685566958232    5.21048025265163
H         0.80710651458791    2.41784656980003    4.85016307155557
B         2.27820000000000   -1.33090000000000    0.17410000000000
O         2.89285761003394   -2.56835457697199    0.37340239799676
C         4.25688945429011   -2.49415448070402   -0.10114282707700
C         5.10828785237143   -2.07667640097814    1.08716061652996
H         4.73325172908709   -1.13037720898538    1.45843729729726
H         4.96900953269633   -2.80770583339860    1.87739479217251
H         6.16830349203622   -2.00995443653299    0.84971324197578
C         4.71846381478063   -3.85516316930318   -0.60018517931214
H         4.74975952455932   -4.55398022411715    0.23567393548078
H         5.71879822746270   -3.77964847861077   -1.02669064887537
H         4.03526547304438   -4.24516047729704   -1.34863856385211
C         4.16207177608271   -1.35907867091346   -1.16671641172473
O         3.07387661417890   -0.56162568338238   -0.66155481579627
C         5.40644127814446   -0.48914574867235   -1.31974750184566
H         6.26530526204070   -1.09115647256813   -1.61607771412272
H         5.22949933332813    0.26582181036125   -2.08512710695665
H         5.63482846172612    0.02389484184387   -0.38971566687390
C         3.72125886993839   -1.89633103909166   -2.53422023179713
H         2.83028125944713   -2.51388825178647   -2.42407253921541
H         3.46269322599264   -1.05404154419292   -3.17478998135169
H         4.50951894821825   -2.47492609355259   -3.01372900347636
H        -3.38042197613143   -3.99633524693309   -2.58174719421186
H        -5.20452404269727    1.50667928681003    1.30102205525637
C         0.23589999999999   -1.68140000000001    2.96030000000000
C        -0.83278176199067   -2.42446048340517    3.45260623113701
C         1.49906163299563   -1.90618214803278    3.78160536904757
C        -0.82754577788400   -3.16854617335252    4.63312366109231
H        -1.72674694845385   -2.48825962293159    2.84348032453698
N         2.94190351570988   -1.93688006757760    3.49148418708098
C         1.43882812555634   -2.57710403055087    5.04676547615653
C         0.27798935237000   -3.22455811926415    5.45544746747107
H        -1.68128586031379   -3.78748985791341    4.87462685718301
O         3.99584707352940   -0.94272348923826    3.37164952347125
C         3.57603635236504   -2.71231909988583    4.47458036749030
C         2.77378080467078   -2.85385510537488    5.60115437382291
H         0.31397264684212   -3.85263329771818    6.33429112426498
Si        5.36879018664782   -0.57454870707660    4.34758591143457
C         4.94711867998902   -2.98617397975514    4.50582661929525
C         3.43111092460582   -2.97922958758700    6.83986054908441
C         6.55604937010412   -0.15829438165105    2.84189108391751
C         4.37911314737930   -0.01032349634810    5.92244483007428
C         7.02478735951341   -0.34264920476924    5.39246800601943
C         5.55683701247527   -3.13807230555757    5.73023482259213
H         5.54797368562153   -3.03035370584513    3.61516757168574
C         4.83059596138819   -3.00728922800325    6.91571827352854
H         2.86547711196792   -2.93519159015784    7.76001999881710
H         6.11779754416220    0.11209121975831    1.88937527658195
H         7.17585103474492    0.68406470546651    3.15143036314325
H         7.25881850071676   -0.96569613000571    2.64036950840339
H         4.54862954014264   -0.67591255730354    6.75829722784033
H         3.30226617823079    0.00079503157900    5.76788966094986
H         4.67390352148749    0.97845731837789    6.27274750739795
H         7.08027498586376   -0.80207178008430    6.36931932857537
H         7.06928270014118    0.73559104055017    5.56145562386348
H         7.94554049395393   -0.59215804899659    4.87333692219923
H         6.63214175106317   -3.24096377752949    5.75085917574150
C         5.66511036063726   -2.84793986130046    8.17394642438290
C         5.77720439004886   -1.42853088244866    8.75017988683314
H         6.68429879681305   -3.15893400149638    7.92355835523101
H         5.30409879290558   -3.50530489516563    8.96617834493495
H         6.21208644634409   -0.73015411594833    8.03897254508786
H         6.43871316158146   -1.44582097330681    9.61683765900648
H         4.81261370263498   -1.03677946104303    9.06433367398915
125
 energy: -176.201332109856 gnorm: 0.095001932099 xtb: 6.4.1 (1a32961)
N        -0.96159025639693   -2.10799793384418   -0.24521430833725
C        -2.23780430440093   -1.69682383955107   -0.35636043940749
C        -3.13172910740695   -2.37046700766323   -1.19869599366964
C        -2.70393605458642   -3.46857843179015   -1.91465614277599
C        -1.38321835715256   -3.88558189351133   -1.77725636839503
C        -0.55900371419603   -3.17058012394766   -0.93543471265930
H         0.47487364521247   -3.45096416436001   -0.79045349036985
H        -1.00793045312131   -4.74299324656422   -2.31256058061004
H        -4.15140094755440   -2.03821725229370   -1.30131632826883
C        -2.60849916713500   -0.52518392511903    0.44022273187054
N        -1.61924190497239    0.05803008881221    1.14841052802574
C        -1.90368726833390    1.12289257215984    1.89379110016995
C        -3.16680141674875    1.67220466658705    1.98781554784959
C        -4.19787146293144    1.08696457811428    1.26153522127382
C        -3.91315639484577   -0.01620963076073    0.48371829999924
H        -4.70386532909295   -0.47990228636356   -0.08209187269689
H        -3.34248606114375    2.53366043028461    2.61271010261643
H        -1.06495493062766    1.54858537593176    2.42259818160710
Ir        0.42150000000000   -0.81650000000000    0.91330000000000
H         0.87260000000000   -2.23030000000000    1.54050000000000
B         0.49802164117661    0.41766594270426   -0.78690896319745
O         0.16544675601248   -0.03467465037607   -2.05634823717325
C         0.00270498051047    1.09072090381178   -2.93729402408705
C         0.48067890889831    0.74420894802614   -4.34468347811453
H         1.49827302432216    0.36989131608623   -4.32613969566544
H         0.43041188761216    1.62122678526112   -4.98523539996002
H        -0.15754132769220   -0.03021379928606   -4.76254545080943
C        -1.50360551396035    1.39310982773290   -2.96588837262780
H        -1.74028644947399    2.20396030671688   -3.64790813105451
H        -2.03090400565708    0.49608857198927   -3.28456783580146
H        -1.84632907511840    1.64445308946907   -1.96379881907559
C         0.82145446236738    2.20164190084153   -2.20792005406664
O         0.75412336106476    1.76993705796537   -0.83848664928505
C         2.30425166510607    2.19320526224665   -2.60126496370737
H         2.70823648505087    1.19567407393449   -2.44933509344132
H         2.45051773678817    2.51402836552128   -3.62873800373082
H         2.84402396126216    2.86734720139297   -1.94056287005961
C         0.26594571449590    3.61782287037854   -2.33455218562457
H        -0.73459229848562    3.68577436496743   -1.92076969143211
H         0.90592401931798    4.29853658924010   -1.77935533175803
H         0.24908576848446    3.92527414564772   -3.37677355318745
B         1.54018622716815    0.66761478580664    1.83578198947091
O         2.89205068613692    0.67793693026320    2.03619181229301
C         3.30883087218665    1.97935252542080    2.45768841829852
C         4.46192312506009    1.97813387829131    3.43493948802050
H         4.20899832125095    1.37274322324426    4.27485931076274
H         5.31636384838872    1.55804462860092    2.94861338078593
H         4.72498345156217    2.96302359809953    3.79282078911437
C         3.76950238857480    2.64467356077838    1.16476103802199
H         4.18623902909096    3.62786362554534    1.34845970363829
H         4.53312399069488    2.00360922351032    0.72797757344267
H         2.93323815642645    2.67502638444249    0.47396953887838
C         2.00142885986635    2.54231850960298    3.06813253146297
O         0.98665830402406    1.83115882473963    2.34273231385016
C         1.85452397122010    4.04136747778515    2.88559457139665
H         1.83800826945961    4.27928539181366    1.82890501247942
H         0.92542598597690    4.37074239475350    3.33816760339002
H         2.68868028248170    4.54941817116862    3.36235570861018
C         1.81385825755070    2.16038285237828    4.54433071360247
H         1.91760537659112    1.08432968275272    4.66093134157954
H         2.52209886615449    2.66886819535955    5.19095216587482
H         0.80392811877255    2.42590744804390    4.84788264235605
B         2.27819999999999   -1.33090000000000    0.17410000000001
O         2.88911335047363   -2.56281445580904    0.35925308609205
C         4.24318893041602   -2.50334970474699   -0.13049793689654
C         5.10657692848567   -2.09685833050984    1.04337354599586
H         4.72396140588479   -1.15660945030904    1.41110288940505
H         4.96719330783159   -2.82790140919269    1.82913802334279
H         6.15861527311086   -2.03218541839844    0.79352026355143
C         4.70514059365150   -3.86381897609230   -0.63002447677576
H         4.73963826822649   -4.54783609467893    0.21442025692582
H         5.70522343981063   -3.77606715843215   -1.04543644048420
H         4.02930026744048   -4.26561597849089   -1.37393372800803
C         4.15132886111864   -1.35960009695816   -1.18005045417659
O         3.06106622841095   -0.57154308803128   -0.67189523141194
C         5.39802001197079   -0.49058902510268   -1.32519168894645
H         6.25160312385454   -1.09500078035313   -1.61794067037458
H         5.22141346329190    0.26213861574566   -2.08854775262942
H         5.62137724213627    0.02175910676510   -0.39645453603412
C         3.71939289442088   -1.89189325275312   -2.55076411427005
H         2.83130729079120   -2.50757176735251   -2.43205106421591
H         3.46103819808993   -1.05143773119352   -3.18899137597132
H         4.51268955706110   -2.46652907699495   -3.01809696916074
H        -3.38077392431443   -3.99467926802974   -2.57036050824874
H        -5.20001569568334    1.48675418773923    1.30387356123491
C         0.23589999999998   -1.68140000000002    2.96030000000002
C        -0.84364608032809   -2.40181667554976    3.45426892469539
C         1.49850378402035   -1.90810510996608    3.79590389891409
C        -0.84831815686735   -3.13988808393335    4.64132295443992
H        -1.73795191618088   -2.45565472980797    2.84538700673083
N         2.94362722096308   -1.94563235258743    3.48713266472742
C         1.42430696606737   -2.57545527486498    5.05940951713422
C         0.25508973518357   -3.20683349910672    5.46267337269751
H        -1.71060789027853   -3.74648177595513    4.88161887219675
O         3.97439143774359   -0.92691463026710    3.34352691449711
C         3.57142455632791   -2.71060406997525    4.48347768748677
C         2.76802848470364   -2.85670859195582    5.60830861251030
H         0.27906053668003   -3.83391699537581    6.34222982375606
Si        5.34898559745573   -0.55409623473847    4.33412832805157
C         4.93804207692567   -2.99277242081418    4.51310446252628
C         3.41546442058807   -2.98706811652171    6.84811927611569
C         6.54443069720460   -0.15093066376870    2.82333474559324
C         4.35835212324184    0.00468378191361    5.92430472342215
C         7.02797802254146   -0.37013207216845    5.40004459176698
C         5.54047189377211   -3.15940830648838    5.73735419606234
H         5.53108281030588   -3.04654653405193    3.61884202455665
C         4.81412915433944   -3.02697921953923    6.92276287972642
H         2.84559201972330   -2.94280164093800    7.76436600359913
H         6.09582299387365    0.11381196354199    1.87802989873638
H         7.16854847693788    0.68376816125843    3.13383223394557
H         7.22973473641291   -0.97727070590068    2.63729475864083
H         4.53658715949423   -0.67456434422112    6.74613400409655
H         3.28440054219998    0.01568149119130    5.76860736688537
H         4.66356504403258    0.98706797509757    6.27462464813775
H         7.07061983469491   -0.84053382773466    6.37035272705655
H         7.09041529670983    0.70535512982678    5.57522283345743
H         7.94022463346104   -0.63650028493884    4.87802237527077
H         6.61283583503921   -3.27717784447578    5.76241825137802
C         5.64316779851926   -2.87576121612490    8.18585853123495
C         5.76032238309365   -1.45207360915425    8.75961325598997
H         6.66056091917156   -3.19385360246424    7.94051889326754
H         5.27066348930749   -3.52706585269236    8.97591036142188
H         6.19999684789426   -0.76036050065774    8.04667270875999
H         6.41830910898704   -1.47215650331981    9.62726845761738
H         4.79716618941136   -1.05631023138329    9.06810247536286
125
 energy: -176.215950916794 gnorm: 0.093791598410 xtb: 6.4.1 (1a32961)
N        -0.95633558973056   -2.10837232523902   -0.24653885463345
C        -2.23334031070000   -1.69985940774399   -0.35421785094716
C        -3.13077951358029   -2.37436420661903   -1.19231972111513
C        -2.70656601664097   -3.47112685269902   -1.90916058596071
C        -1.38399660042434   -3.88666688156443   -1.77546736664245
C        -0.55870784839685   -3.16995289486614   -0.93685945070858
H         0.47451861321834   -3.45325155268664   -0.79503571205090
H        -1.01130219543723   -4.74373543564681   -2.31027403550720
H        -4.15063762289748   -2.04269480325624   -1.28923002059262
C        -2.60307636945404   -0.53449536582471    0.44017332636436
N        -1.61388796195976    0.04924484473727    1.14664738419119
C        -1.90351305466021    1.11088052276328    1.89116633282693
C        -3.16665338586186    1.65729262243335    1.98896971444930
C        -4.19861404417498    1.06962591677152    1.26377864470216
C        -3.90998111422514   -0.03021510451927    0.48581074940734
H        -4.69895000911151   -0.49734266440169   -0.07845205225628
H        -3.34353489731836    2.51544235976136    2.61549141944014
H        -1.06930541180507    1.54079109074970    2.42235397081059
Ir        0.42150000000000   -0.81650000000000    0.91330000000000
H         0.87260000000000   -2.23030000000000    1.54050000000000
B         0.49223033570394    0.42172234290455   -0.77444044483972
O         0.14826152324847   -0.03415177825704   -2.03990748752968
C        -0.00675538561385    1.08427545140736   -2.92414763362279
C         0.47284957489020    0.73797882540283   -4.33172011920849
H         1.48992461171752    0.36362926874751   -4.31632602723264
H         0.41981691231357    1.61884048608548   -4.96571073015207
H        -0.16748024139460   -0.03383784578734   -4.74974768302478
C        -1.51234990818971    1.39117692809243   -2.96250173666762
H        -1.73947559916902    2.20102657978274   -3.64741170831735
H        -2.03835885179414    0.49442782106937   -3.28226124297076
H        -1.85587758729072    1.64370141257910   -1.96165982366743
C         0.80972435965672    2.19828817428762   -2.19854258058610
O         0.75345573447456    1.77001113659728   -0.83240165470760
C         2.29024077363462    2.19592147028010   -2.60198672757240
H         2.69511902643570    1.19977791051601   -2.44644998642004
H         2.42597913517879    2.51315293335664   -3.63106079217075
H         2.82947936202024    2.87502285585961   -1.94693031261600
C         0.25075092687873    3.61345763798306   -2.32916405191145
H        -0.74800854265781    3.68355995070096   -1.91269282783966
H         0.89402543058026    4.29472669390227   -1.77950641022579
H         0.23287921313220    3.91183571909562   -3.37322684375884
B         1.53470823548227    0.69154846960241    1.82936075381448
O         2.88335104682434    0.73382242237352    1.99452304030503
C         3.28017473813204    2.03444447880268    2.42757322787777
C         4.43160948781334    2.06920795314553    3.41170533218759
H         4.19066821221399    1.47256303043070    4.26417629797503
H         5.30767165100279    1.67326225050698    2.93607156317827
H         4.64861028343747    3.07766025106460    3.74702330361413
C         3.74325080949434    2.70590490871068    1.13642312122686
H         4.16486048960926    3.68640604605174    1.31604082252291
H         4.50783444353229    2.05497265119101    0.71527226549700
H         2.91356347534721    2.72782641932110    0.43886969311059
C         1.96837213871438    2.57163415770406    3.05132924747184
O         0.95956248523481    1.84186336699935    2.34359884983599
C         1.81752485238586    4.07128163215903    2.87902229709401
H         1.80108250562234    4.31454420329649    1.82417199660542
H         0.89522122312045    4.40319316120226    3.34083509852687
H         2.66055033207955    4.56345118447854    3.35583047549148
C         1.80270054923709    2.18171750955233    4.53021928101085
H         1.91266264935785    1.10454757863560    4.63015636744153
H         2.51510593979931    2.68803847888406    5.17210149509983
H         0.79454884842902    2.43834460241713    4.84591579106185
B         2.27819999999999   -1.33090000000000    0.17410000000001
O         2.88078938758898   -2.56517641752085    0.34420782760051
C         4.22630828926688   -2.51409230308048   -0.16153974831051
C         5.10494754878430   -2.11920973146565    1.00444155140078
H         4.72053156552332   -1.18157501414329    1.37550098442021
H         4.97233421057198   -2.85528820090698    1.78676194585901