102
 energy: -147.628916608045 gnorm: 0.000312304285 xtb: 6.4.1 (1a32961)
N        -0.90410624685304   -2.04405879628329   -0.32207036433199
C        -2.18018973068359   -1.62943602161304   -0.40659626948246
C        -3.11647374290645   -2.33602137973267   -1.17224543904152
C        -2.72922685846841   -3.46040432546954   -1.86705589593745
C        -1.39983352127141   -3.86751256575649   -1.78310686860090
C        -0.53937259138918   -3.12941306406398   -0.99800039897582
H         0.49854541828232   -3.41490463239057   -0.89580920148742
H        -1.04966716176821   -4.74062625301535   -2.30994048737281
H        -4.14379255692418   -2.01308908829479   -1.21618649478958
C        -2.52056207762394   -0.42719275595522    0.33984956497583
N        -1.56274197147620    0.07464332014929    1.14664577341459
C        -1.84625140825907    1.15130069175788    1.87543260173829
C        -3.06207619427031    1.80291776158344    1.83586415725370
C        -4.04608900944038    1.32229697888856    0.97625252927728
C        -3.76664629724733    0.20014167123896    0.22677100309755
H        -4.51182770912013   -0.18272814487241   -0.45099765115451
H        -3.23683303842288    2.66747178081653    2.45641565197095
H        -1.04593705818688    1.50352134497373    2.50817474966302
Ir        0.42149999999990   -0.81649999999991    0.91330000000004
H         0.87260000000012   -2.23029999999993    1.54050000000016
B         0.41036006731811    0.60700022197834   -0.61041092574860
O        -0.24522370130994    0.32117650351765   -1.79541750302503
C        -0.32246723511431    1.49501118320172   -2.60975782544865
C        -0.09088324561951    1.12320901358241   -4.07238972740464
H         0.82289321769226    0.54854437847831   -4.18114983645607
H        -0.03418406285331    2.02109224791168   -4.68255922755740
H        -0.91993066945702    0.51210666890768   -4.42150559547035
C        -1.74100610554820    2.06089864806870   -2.44862952319427
H        -1.89102405296936    2.93157963505359   -3.08021766575821
H        -2.45648764421962    1.29035915594492   -2.72874352672867
H        -1.92206050210499    2.32452717397465   -1.40838623098412
C         0.77095254693424    2.41839796311351   -1.97939342739596
O         0.88279796660256    1.90061731771790   -0.64697279022615
C         2.14398287628743    2.23632655114677   -2.63833509155572
H         2.42320387160527    1.18654790616006   -2.59000748485526
H         2.14315865207108    2.58759876896141   -3.66627270497223
H         2.87993918850533    2.80088253274383   -2.07054018460343
C         0.41710596137087    3.90366903424867   -1.93695503368402
H        -0.45664714843016    4.08301530991529   -1.31837150178090
H         1.25193937164851    4.45609954765181   -1.51239120604538
H         0.23044689671451    4.27004362232856   -2.94333939910817
B         1.58423771236055    0.63198237710799    1.87798883825441
O         2.95962119842855    0.72389176264610    1.90551990578749
C         3.36004295825009    1.99953886628575    2.42245061342374
C         4.60427401210583    1.84287562777903    3.29554645608259
H         4.45503882482587    1.08328594093285    4.05564721599931
H         5.44150028438054    1.53805619440271    2.67281836884113
H         4.84820514455355    2.78994430007847    3.76956684525763
C         3.69094160080965    2.87668195874470    1.20854532871281
H         3.99338187385950    3.87633025365365    1.50655077619957
H         4.50324600264055    2.41055524922596    0.65532290084487
H         2.82241708807727    2.91491925687877    0.55594376481516
C         2.07725988424338    2.47832743395628    3.18173743379232
O         1.04358961971218    1.68942140832939    2.58024951341478
C         1.74631321943807    3.96015877758023    3.01233227516131
H         1.53228283998376    4.18594748778686    1.97307569503055
H         0.86420669146855    4.19825944239389    3.60177149482552
H         2.57515420181766    4.57167287504569    3.35886232380463
C         2.09940635505859    2.13145231695367    4.67617502564959
H         2.28820958189671    1.06946706353921    4.80624641585702
H         2.85081877666343    2.71238491210431    5.20230744895574
H         1.12165857942993    2.35003112832059    5.09920159557582
B         2.27820000000085   -1.33090000000025    0.17410000000082
O         3.09276903019392   -2.31691769976863    0.69830851824394
C         4.37851146673765   -2.29326884064927    0.06791681833201
C         5.32744185461154   -1.57958294770260    1.03709295173127
H         4.91361926633408   -0.60451302097465    1.27744567062817
H         5.37726438538899   -2.15722917061353    1.95679211199064
H         6.32645481288979   -1.48470621178698    0.62273928747583
C         4.86487663648827   -3.72563183028047   -0.15405974185905
H         5.00170938477378   -4.20173582448429    0.81332948945558
H         5.81413618453098   -3.72057886219306   -0.68260804937015
H         4.14050988145859   -4.30698793774035   -0.71459870503765
C         4.10626240848582   -1.47263332070645   -1.24111133387725
O         2.87588746753638   -0.79548970340426   -0.94561703042894
C         5.17852521223043   -0.43989303142901   -1.58421077642539
H         6.14299473554198   -0.92408350314878   -1.71070315926898
H         4.90986704885283    0.05769927727078   -2.51263151092463
H         5.24216693577457    0.31084961470684   -0.80434873255674
C         3.85158401711607   -2.35874441969259   -2.46852827541152
H         3.05997055660648   -3.07256028717930   -2.25743298894052
H         3.52167544574377   -1.72744518859552   -3.29015938106294
H         4.75383256996175   -2.88445031679087   -2.76633304463567
H        -3.44117547384739   -4.01424013147229   -2.46041747320396
H        -5.00400235376259    1.81450971927477    0.89770219871910
C         0.23589999999942   -1.68139999999936    2.96030000000054
C        -1.05286347668809   -2.05139389051274    3.35170772898993
C         1.16223639723447   -1.53976656966087    3.98470739935744
C        -1.39425034196672   -2.16767528945305    4.72102229273120
N        -2.16327122986097   -2.34760695494633    2.59098363556652
C         0.81904887698417   -1.66001880880742    5.33171763127061
H         2.18700936303650   -1.32315580207046    3.72282340196853
C        -0.46901268879761   -1.96523451033449    5.73102229900486
N        -2.72306980061652   -2.51894649409534    4.73454955547221
C        -3.12123586258427   -2.61430220825214    3.42740471047270
H         1.58189036501429   -1.51674176631414    6.08412047823419
H        -0.73550225645272   -2.05448468430942    6.77361288389572
H        -3.28739115000549   -2.68945603006232    5.54980569662289
C        -4.50733759702792   -2.98786569205467    3.05116611880119
H        -4.59760757436920   -2.95434461205957    1.97007302092829
H        -5.22221929865795   -2.29652339323259    3.49509880475910
H        -4.73783855928541   -3.99425406844515    3.39846675175690
