102
 energy: -147.613794468583 gnorm: 0.076271443501 xtb: 6.4.1 (1a32961)
N        -0.96510000000000   -2.11530000000000   -0.24090000000000
C        -2.24700000000000   -1.69840000000000   -0.36220000000000
C        -3.14040000000000   -2.36820000000000   -1.21200000000000
C        -2.70220000000000   -3.47560000000000   -1.93050000000000
C        -1.37780000000000   -3.89880000000000   -1.78760000000000
C        -0.54290000000000   -3.18670000000000   -0.93510000000000
H         0.49810000000000   -3.45630000000000   -0.78940000000000
H        -0.99570000000000   -4.76030000000000   -2.32770000000000
H        -4.16500000000000   -2.02890000000000   -1.31830000000000
C        -2.62130000000000   -0.50950000000000    0.44100000000000
N        -1.62600000000000    0.07330000000000    1.16020000000000
C        -1.89680000000000    1.15240000000000    1.91690000000000
C        -3.17230000000000    1.70330000000000    1.99650000000000
C        -4.20510000000000    1.11740000000000    1.26270000000000
C        -3.92610000000000    0.00250000000000    0.47820000000000
H        -4.71960000000000   -0.46420000000000   -0.09520000000000
H        -3.34630000000000    2.57510000000000    2.62070000000000
H        -1.04450000000000    1.57420000000000    2.43690000000000
Ir        0.42150000000000   -0.81650000000000    0.91330000000000
H         0.87260000000000   -2.23030000000000    1.54050000000000
B         0.50670000000000    0.41560000000000   -0.81540000000000
O         0.19500000000000   -0.04700000000000   -2.09150000000000
C         0.00650000000000    1.10040000000000   -2.95430000000000
C         0.49020000000000    0.74740000000000   -4.35780000000000
H         1.51610000000000    0.37380000000000   -4.33700000000000
H         0.44730000000000    1.62240000000000   -5.01670000000000
H        -0.14740000000000   -0.03390000000000   -4.78430000000000
C        -1.50120000000000    1.39560000000000   -2.96670000000000
H        -1.75370000000000    2.21460000000000   -3.64850000000000
H        -2.03200000000000    0.49450000000000   -3.28930000000000
H        -1.85170000000000    1.65210000000000   -1.96220000000000
C         0.84230000000000    2.20670000000000   -2.22040000000000
O         0.75200000000000    1.78260000000000   -0.83690000000000
C         2.32930000000000    2.18620000000000   -2.59900000000000
H         2.74130000000000    1.18500000000000   -2.45750000000000
H         2.48870000000000    2.51300000000000   -3.63180000000000
H         2.87200000000000    2.86270000000000   -1.93200000000000
C         0.28440000000000    3.62290000000000   -2.33660000000000
H        -0.72650000000000    3.69040000000000   -1.92910000000000
H         0.92130000000000    4.31480000000000   -1.77610000000000
H         0.26430000000000    3.94810000000000   -3.38320000000000
B         1.56300000000000    0.60960000000000    1.84840000000000
O         2.92780000000000    0.55230000000000    2.15020000000000
C         3.36330000000000    1.88660000000000    2.50260000000000
C         4.53140000000000    1.78590000000000    3.47740000000000
H         4.27910000000000    1.16090000000000    4.33690000000000
H         5.39390000000000    1.33790000000000    2.97340000000000
H         4.82390000000000    2.77870000000000    3.83820000000000
C         3.79700000000000    2.56850000000000    1.19670000000000
H         4.20020000000000    3.57090000000000    1.37680000000000
H         4.56740000000000    1.95560000000000    0.72110000000000
H         2.95240000000000    2.63260000000000    0.50540000000000
C         2.05040000000000    2.50090000000000    3.09320000000000
O         1.03750000000000    1.81620000000000    2.31910000000000
C         1.89100000000000    4.00450000000000    2.88650000000000
H         1.87290000000000    4.25440000000000    1.82410000000000
H         0.94940000000000    4.34260000000000    3.33170000000000
H         2.71080000000000    4.55150000000000    3.36630000000000
C         1.82470000000000    2.13200000000000    4.56520000000000
H         1.92610000000000    1.05330000000000    4.71320000000000
H         2.52610000000000    2.65280000000000    5.22540000000000
H         0.80630000000000    2.41580000000000    4.84900000000000
B         2.27820000000000   -1.33090000000000    0.17410000000000
O         2.89460000000000   -2.57740000000000    0.38450000000000
C         4.26930000000000   -2.48200000000000   -0.07210000000000
C         5.10900000000000   -2.05380000000000    1.14010000000000
H         4.76350000000000   -1.08740000000000    1.51750000000000
H         4.98050000000000   -2.79470000000000    1.93590000000000
H         6.17420000000000   -1.99290000000000    0.89300000000000
C         4.71950000000000   -3.84660000000000   -0.58470000000000
H         4.75280000000000   -4.56130000000000    0.24420000000000
H         5.72330000000000   -3.78370000000000   -1.02010000000000
H         4.03500000000000   -4.23600000000000   -1.34170000000000
C         4.16440000000000   -1.36220000000000   -1.16300000000000
O         3.08520000000000   -0.55030000000000   -0.65400000000000
C         5.40720000000000   -0.48870000000000   -1.31550000000000
H         6.27320000000000   -1.09010000000000   -1.61530000000000
H         5.23300000000000    0.26930000000000   -2.08590000000000
H         5.64270000000000    0.02650000000000   -0.38240000000000
C         3.71800000000000   -1.89830000000000   -2.53110000000000
H         2.82530000000000   -2.52160000000000   -2.42740000000000
H         3.46090000000000   -1.05250000000000   -3.17550000000000
H         4.50570000000000   -2.48290000000000   -3.01790000000000
H        -3.38500000000000   -4.00130000000000   -2.59310000000000
H        -5.21400000000000    1.52080000000000    1.29960000000000
C         0.23590000000000   -1.68140000000000    2.96030000000000
C        -1.00648904458774   -2.10109292523844    3.45556764458967
C         1.30505294966986   -1.84364125153651    3.84567289832622
C        -1.13536303842161   -2.61809923020225    4.75969305502327
N        -2.24486517914806   -2.10761910678273    2.85240396245655
C         1.17447082164204   -2.36896593564402    5.13028793285580
H         2.29538249263553   -1.58089954929384    3.49527779207408
C        -0.05542875327954   -2.78762607125845    5.61525448588174
N        -2.46604784204486   -2.92293072226387    4.90757570260627
C        -3.08121625977783   -2.58542871571096    3.73156353054656
H         2.05827114825864   -2.49364547400973    5.74463077948860
H        -0.16393416075806   -3.24236036841931    6.59018227615832
H        -2.90012905640756   -3.32068577208497    5.72451525433265
C        -4.54200403585389   -2.74436124137179    3.53631210791925
H        -4.83675796952756   -2.21873840151940    2.62930696434049
H        -5.08338591879429   -2.33003113277243    4.38826168409032
H        -4.80460385911915   -3.79909176341393    3.43687429027796
102
 energy: -147.620540267728 gnorm: 0.047282740122 xtb: 6.4.1 (1a32961)
N        -0.95680869371973   -2.09514185120694   -0.25561222726248
C        -2.23464956732775   -1.68631160449539   -0.36540101706896
C        -3.13114605947350   -2.36024904163354   -1.20379754213332
C        -2.70345823999676   -3.46293486730159   -1.91941493697340
C        -1.38417833301830   -3.88282443270322   -1.78038839262551
C        -0.55301521452596   -3.16698480576725   -0.94047108042839
H         0.48106919504800   -3.44756441649512   -0.79316669363665
H        -1.00839075383498   -4.74300109510921   -2.31642255384725
H        -4.15173302034181   -2.02450926878316   -1.30751214772163
C        -2.60443034767465   -0.50810883332473    0.43178133111965
N        -1.61156325559939    0.07735457798307    1.13499151923180
C        -1.89396910365257    1.14041394693547    1.89003067249757
C        -3.16277357931941    1.68547432353158    1.98405641916172
C        -4.19283521404220    1.10213091521354    1.25673461597720
C        -3.90872306618979   -0.00320447565386    0.47586044555218
H        -4.70066826978087   -0.46858440916935   -0.09136518134234
H        -3.33889126088029    2.54803084002018    2.61211467717611
H        -1.05235210554232    1.55944395759816    2.42077092768302
Ir        0.42150000000000   -0.81650000000000    0.91330000000000
H         0.87260000000000   -2.23030000000000    1.54050000000000
B         0.48867225797602    0.42401271230743   -0.79017268713507
O         0.17613237194690   -0.03412305398835   -2.06415820694203
C         0.01050447071628    1.09764095925034   -2.94415285552331
C         0.48964198883381    0.74830565692433   -4.34916215645657
H         1.50856267379379    0.37139968978787   -4.32757901968123
H         0.44487603728646    1.62371249119339   -4.99779991507967
H        -0.14913622917564   -0.02788626347873   -4.76915428266433
C        -1.49364976251968    1.39994175060495   -2.97007870899590
H        -1.73246888018242    2.21308712904758   -3.65407740867600
H        -2.02340130386712    0.50255392663538   -3.28952414718801
H        -1.83986131849757    1.65381013891663   -1.96808682800221
C         0.83209317384686    2.20730285907704   -2.21282737776288
O         0.75549434000470    1.78023244776372   -0.83598408316448
C         2.31472387550988    2.19119193024198   -2.60028504714902
H         2.71861550628934    1.19197372389879   -2.45003867978106
H         2.46680316004224    2.51260033140130   -3.63006491587561
H         2.85699954344067    2.86561595349117   -1.93850351409377
C         0.28081322255308    3.62356012051860   -2.33960963739484
H        -0.72237816580112    3.69200256694108   -1.92702382998693
H         0.92041225609470    4.30699868801923   -1.78254556805242
H         0.26304147783836    3.93643373561454   -3.38378505188495
B         1.56251825766524    0.61235315314311    1.86428312763743
O         2.92517591376911    0.56411120519167    2.13996567621036
C         3.36346969350778    1.88597011050504    2.51023382356232
C         4.53380987952914    1.78903862220010    3.48046628650793
H         4.28136904458897    1.16063974622329    4.33047853890516
H         5.38859121883427    1.34449378054107    2.97243172951583
H         4.81649984469603    2.77948228000191    3.83634139607450
C         3.79894863318768    2.57320580848807    1.21144674041526
H         4.20033792677695    3.56911915557313    1.39497009768597
H         4.56279237051952    1.96165000471102    0.73416178737812
H         2.95048697886314    2.62511072847788    0.53047625765062
C         2.05402561675842    2.50499512020209    3.09055669770141
O         1.04173854419293    1.80922767997877    2.33786240822883
C         1.89506319452698    4.00720410344028    2.88980382040197
H         1.86937602747159    4.25020577695791    1.83138609362407
H         0.95728150770018    4.33600629755975    3.33599764315575
H         2.71549051743665    4.54381725421964    3.36585742626052
C         1.83279503065275    2.14025479685970    4.56265798114991
H         1.93365889054850    1.06405929610161    4.69898880448595
H         2.53397262251218    2.66122280264387    5.21236448762511
H         0.81798412388438    2.41849198395807    4.84627900825413
B         2.27820000000000   -1.33090000000001    0.17410000000000
O         2.90253713307785   -2.56206907176174    0.38984849065026
C         4.26662442980877   -2.48363231630248   -0.07845887986343
C         5.11091382687483   -2.05898507293831    1.12761757772287
H         4.75379039676355   -1.09917717472203    1.49872861839275
H         4.97903941716371   -2.79456131735109    1.92040227197877
H         6.16879807993011   -1.99846962057058    0.87613405950366
C         4.72105369315663   -3.84582535179251   -0.58853115894590
H         4.75020456372798   -4.55023754637310    0.24152221597705
H         5.71878523384402   -3.77454018124593   -1.02098118121373
H         4.03474336641366   -4.23277171759420   -1.33697628728684
C         4.16706729266089   -1.36048313458829   -1.15821539920848
O         3.07561548439958   -0.56377108272565   -0.66174147366596
C         5.41030298622189   -0.49216561762792   -1.31608238724533
H         6.26660128978764   -1.09778466580441   -1.61199629450256
H         5.23140372669811    0.25911064768236   -2.08412860077503
H         5.63768038031605    0.02229541648091   -0.38689725643722
C         3.72955742870637   -1.89949184094363   -2.52631228613041
H         2.83718606979316   -2.51438834853714   -2.41715868707895
H         3.47188840594409   -1.05773775091202   -3.16773112237809
H         4.51923860893086   -2.47678381710827   -3.00457486545204
H        -3.38342224300192   -3.98744391509529   -2.57750415261222
H        -5.19784476378744    1.50203967567313    1.29837089894032
C         0.23590000000000   -1.68140000000000    2.96030000000000
C        -1.00702778462752   -2.09884870114864    3.45431493688080
C         1.30106402202082   -1.83751005957874    3.85022636449618
C        -1.13674507535477   -2.61297599257881    4.76491262265925
N        -2.24681200201761   -2.11002372367106    2.85209387755410
C         1.16763516191372   -2.35797864518359    5.13589065799253
H         2.29017159475618   -1.57337424763131    3.50300982902304
C        -0.05858253605606   -2.77677934826086    5.61958616682378
N        -2.46820088608232   -2.91886737395721    4.90899505709843
C        -3.08055365064223   -2.58545328423418    3.73084329739513
H         2.04906325298183   -2.47796784457347    5.75127733336861
H        -0.16692808114073   -3.22788547673081    6.59486644813080
H        -2.90360240489888   -3.31460473205329    5.72528438363194
C        -4.54155953420151   -2.74749393096838    3.53347072230026
H        -4.83512935961062   -2.22600858684292    2.62685450210965
H        -5.08460622131254   -2.33271306818884    4.38193526609118
H        -4.80213360031372   -3.80138001514341    3.43618054844880
102
 energy: -147.622352996628 gnorm: 0.037986785006 xtb: 6.4.1 (1a32961)
N        -0.94312505648699   -2.08515550838679   -0.26466682151517
C        -2.21804851399671   -1.67647594281490   -0.36869959398370
C        -3.12111291692744   -2.34922335873793   -1.20005754211378
C        -2.70490126743732   -3.45133159146299   -1.91494443861548
C        -1.38636957090852   -3.87275459662814   -1.78038492951215
C        -0.55381387958748   -3.15642664514848   -0.94742821971890
H         0.47868671790768   -3.44290577507391   -0.80895387463581
H        -1.01805713474567   -4.73457962482774   -2.31274801639757
H        -4.14060534625690   -2.01448463418909   -1.29425411147425
C        -2.58339772884112   -0.50729066417350    0.42451056807483
N        -1.59419407596261    0.07463213328234    1.12744953332996
C        -1.88444160859480    1.13038615257906    1.87829921241796
C        -3.15017748923047    1.67338068007401    1.97774335264685
C        -4.17998187907227    1.08973541076712    1.25133384532010
C        -3.88897385788329   -0.00748996175441    0.46911822959457
H        -4.67847017227149   -0.47688767077725   -0.09392986698287
H        -3.32874263843815    2.52821662196401    2.61042142658815
H        -1.04907034420456    1.55718676000603    2.40963985064004
Ir        0.42150000000000   -0.81650000000000    0.91330000000000
H         0.87260000000000   -2.23030000000000    1.54050000000000
B         0.49780931443210    0.43322239245627   -0.76909361334528
O         0.15844306094435   -0.02352909245246   -2.03582137829317
C         0.00648581366547    1.09611699842081   -2.92457233640833
C         0.48957411178761    0.74246765525539   -4.32763434206809
H         1.50477391944179    0.36189499894983   -4.30739225443383
H         0.44478499632182    1.62111064816653   -4.96630597761288
H        -0.15326776206362   -0.02758388637373   -4.74605635955881
C        -1.49599687461183    1.40784751252039   -2.96914960044495
H        -1.71681338216576    2.21747292867077   -3.65842046309667
H        -2.02525166164280    0.51296259269446   -3.28957541874450
H        -1.84432383955620    1.66459889097218   -1.97096720448073
C         0.82490689229042    2.20811914613402   -2.20012846596145
O         0.76080270784797    1.78480353556493   -0.82844651084085
C         2.30490969636228    2.19736852607005   -2.59831196570223
H         2.70582483511580    1.19971133257724   -2.44109341631311
H         2.44370672007841    2.51143004543387   -3.62902044217840
H         2.84706946398916    2.87616441732915   -1.94460151988788
C         0.27067099356081    3.62285758730656   -2.33556394452133
H        -0.72825729116702    3.69673923009832   -1.91918916971568
H         0.91547825655054    4.30488574384707   -1.78793865180570
H         0.25321408179505    3.91942839838602   -3.38102764167934
B         1.56576403035647    0.62004804833147    1.86862869077204
O         2.92390395912182    0.57419639127336    2.13160081195190
C         3.36332376339918    1.88625546395511    2.51453861339124
C         4.53245246241069    1.78863603058252    3.48710494566602
H         4.28337455932181    1.15549582054422    4.33157728454352
H         5.38464822880413    1.35133103078720    2.97424228278746
H         4.80535941878627    2.77866524406781    3.84107936204784
C         3.80291322957739    2.58296363043505    1.22250187349252
H         4.20078965621584    3.57501087629298    1.41381637835713
H         4.56574211141842    1.97402202351233    0.74500997216188
H         2.95263115278626    2.62900736358853    0.54648575293248
C         2.05601427111658    2.50438768142619    3.09361113358040
O         1.04503801452634    1.80306575205950    2.35450709622216
C         1.89891518181749    4.00665707417402    2.89141088742228
H         1.86541507459070    4.24792815255546    1.83501496565354
H         0.96600887026719    4.33161320679269    3.34369494800452
H         2.72300690608341    4.53454390011656    3.36277166256339
C         1.84506320515961    2.14745707686352    4.56998624494157
H         1.94729257526799    1.07250989205929    4.69941441185159
H         2.54896191385598    2.67108503171687    5.20904840918849
H         0.83237530727555    2.42308329061996    4.85471276105034
B         2.27819999999999   -1.33090000000002    0.17410000000000
O         2.90607008445611   -2.55054623135448    0.39757067671848
C         4.26046643895083   -2.48216970233365   -0.07991368197326
C         5.11589555067305   -2.06158514485213    1.11939773127949
H         4.75323276337289   -1.10507056866875    1.48792095480578
H         4.98490569520342   -2.79614870149977    1.90967994617210
H         6.16811245974694   -2.00153199879756    0.85913492764091
C         4.71385276270957   -3.84397157098651   -0.59337047175037
H         4.74534361331801   -4.54210658302883    0.23803497567919
H         5.70744186144064   -3.76373359270754   -1.02500238622402
H         4.02704805751080   -4.23210512152874   -1.33718399189777
C         4.16327429944246   -1.36053115540398   -1.15710303648898
O         3.06493549344761   -0.57329244371292   -0.67025719351575
C         5.40810013399272   -0.49398389073320   -1.31125074253677
H         6.25664251322004   -1.10683562851451   -1.60182617847968
H         5.23035194131587    0.25067599792838   -2.08202586624894
H         5.63215180664642    0.02259652248441   -0.38518715511200
C         3.73999641183161   -1.90287716059932   -2.52900936426715
H         2.84847010196908   -2.51468836919429   -2.41862860102310
H         3.48588173843946   -1.06275554548987   -3.17050464366156
H         4.53559448611448   -2.47594622606283   -2.99482457796797
H        -3.38813249615329   -3.97648575340422   -2.56478919859126
H        -5.18486460518275    1.48253863913529    1.29873696989176
C         0.23590000000000   -1.68140000000001    2.96030000000000
C        -1.00815876513893   -2.09545776952459    3.45245183935159
C         1.29696750791781   -1.82615562715768    3.85657096701318
C        -1.14145808149968   -2.60188800991797    4.76990498074356
N        -2.24775676984126   -2.11340039991609    2.84826831889370
C         1.15919052383432   -2.33648062766256    5.14554602626207
H         2.28581560302494   -1.56092141023549    3.51254687880298
C        -0.06602972644545   -2.75561877661479    5.62743021170473
N        -2.47324607458027   -2.90958037014729    4.90950851165973
C        -3.08111838548150   -2.58492270640489    3.72704267200006
H         2.03796728185317   -2.44686025299398    5.76508871655958
H        -0.17604761671614   -3.19930111267383    6.60564108044550
H        -2.91093972925565   -3.30110145767875    5.72625187669101
C        -4.54181530445259   -2.75294616587062    3.52629717305123
H        -4.83376505870258   -2.23779760719408    2.61693428887764
H        -5.08779323839511   -2.33602788534083    4.37088345023122
H        -4.79760366919176   -3.80784538597424    3.43413868770123
102
 energy: -147.623104350981 gnorm: 0.037477592526 xtb: 6.4.1 (1a32961)
N        -0.92826511570730   -2.08062270025184   -0.27533853963371
C        -2.20357154438605   -1.67078964873583   -0.37362045877642
C        -3.11297006266524   -2.34334640001209   -1.19920332090819
C        -2.70490952509685   -3.44734401808152   -1.91399862549642
C        -1.38476419764853   -3.87010651859885   -1.78609123894605
C        -0.54664173834300   -3.15230910549716   -0.95998786688736
H         0.48581260483353   -3.44365613999795   -0.82858768640773
H        -1.02219203696289   -4.73428017636196   -2.31728470555090
H        -4.13182687396938   -2.00567081530027   -1.28698729565023
C        -2.56615138758790   -0.50520848501179    0.41920531398956
N        -1.57767038301480    0.07686937307652    1.12340257943248
C        -1.87219686192399    1.13049179143071    1.87416892601602
C        -3.13933422270044    1.66851255158292    1.97851067946367
C        -4.16967840037153    1.08250385572747    1.25204572712400
C        -3.87373587451120   -0.00931572252790    0.46577455850558
H        -4.66043025759997   -0.48048183174640   -0.09903523940830
H        -3.31997747720860    2.51905454555065    2.61498697340836
H        -1.04065203091343    1.56176836791678    2.40845373672489
Ir        0.42150000000000   -0.81650000000000    0.91330000000000
H         0.87260000000000   -2.23030000000000    1.54050000000000
B         0.48136466654446    0.44866622210827   -0.74962199720415
O         0.13664738809343   -0.01338135261308   -2.01279744512176
C        -0.00221925880330    1.09797070449409   -2.90762331696852
C         0.48811102430869    0.73488799187260   -4.30667273970531
H         1.50073368470649    0.34837582065808   -4.28083299915353
H         0.45019090887929    1.61376165854453   -4.94461925434406
H        -0.15811177457988   -0.03188810469606   -4.72524449423469
C        -1.50356185708578    1.41793996560679   -2.96816545317755
H        -1.70941547720128    2.22577636220712   -3.66333008060826
H        -2.03374386758771    0.52464456773014   -3.29058978421197
H        -1.85969429064728    1.68068442264220   -1.97454625417343
C         0.81725798233147    2.21178732465777   -2.18691992574926
O         0.76169726235358    1.79486071016762   -0.81660218756733
C         2.29565778663763    2.20278302400033   -2.59483456702429
H         2.69860272390768    1.20702239562965   -2.43170995213997
H         2.42489444398786    2.50912598463408   -3.62858535539423
H         2.83911882353747    2.88858492885052   -1.94990996734268
C         0.26163935546129    3.62629917543446   -2.32928652232457
H        -0.73495081934379    3.70399158478860   -1.90861121100382
H         0.91034664597169    4.31225539865679   -1.79158203909546
H         0.23944981132935    3.91051294989486   -3.37770059809640
B         1.56616579090167    0.61958097051168    1.88113394385889
O         2.92566241089626    0.57876450415075    2.12487781283777
C         3.36427271915322    1.88576760739521    2.51769080499932
C         4.53341518059076    1.78601121043267    3.49170154614122
H         4.28672331916167    1.14697952021574    4.33214066000026
H         5.38761205079661    1.35624870424758    2.97622365188979
H         4.79917351879894    2.77589702675870    3.85030458331099
C         3.80683680797984    2.59307389374117    1.23134777536043
H         4.20098855408967    3.58424514151050    1.43137119637741
H         4.57272666051078    1.98894818623575    0.75296156316441
H         2.95750224835828    2.63983520760219    0.55467482070646
C         2.05835913009895    2.50329161829736    3.10024045643801
O         1.04599339878213    1.79691497080527    2.37254757879963
C         1.90040663383820    4.00595505676388    2.89439732701971
H         1.85859706015533    4.24513847803840    1.83790021625167
H         0.97191811187137    4.33235481557252    3.35418171086765
H         2.72979152237885    4.53139719531687    3.35819957051103
C         1.85749925427369    2.15397824147395    4.58100890046507
H         1.96198861154411    1.07981302936402    4.71232936514209
H         2.56576097585723    2.68186025844454    5.21072320721787
H         0.84643607933285    2.42965909240705    4.87020475739028
B         2.27819999999999   -1.33090000000003    0.17409999999999
O         2.90844463459879   -2.54438588200398    0.40619038743985
C         4.25627576770594   -2.48143141112913   -0.08019519807675
C         5.12214379178582   -2.06312436637431    1.11364581484073
H         4.76064645092750   -1.10727717116795    1.48437298226678
H         4.99546145420891   -2.79875186140095    1.90320513845859
H         6.17148527781428   -2.00345266401516    0.84463350741072
C         4.70580036791994   -3.84476879482134   -0.59611904741635
H         4.74132717615144   -4.54152095149954    0.23588246972717
H         5.69691571361213   -3.76135770430806   -1.03159734375841
H         4.01600175206609   -4.23326815929724   -1.33666948476548
C         4.15967100375686   -1.36077465652681   -1.15823193685079
O         3.05638885230769   -0.57836146305656   -0.67971091443660
C         5.40504748694674   -0.49296736073780   -1.30740564372793
H         6.25261849255738   -1.10990167543200   -1.59078526180622
H         5.23151981989188    0.24791836280081   -2.08240384811553
H         5.62468862669796    0.02664978620825   -0.38226314355448
C         3.74908103979291   -1.90629197585045   -2.53386625688406
H         2.85801152510165   -2.51904154855478   -2.42878417118771
H         3.50030973099525   -1.06728556873351   -3.17860420122137
H         4.55098899353332   -2.47805306402915   -2.98910089716633
H        -3.39305300409217   -3.97242750015990   -2.55808731832181
H        -5.17606662079955    1.46970136390571    1.30290427616977
C         0.23589999999999   -1.68140000000002    2.96030000000000
C        -1.00931048774928   -2.09265897946804    3.45050356954375
C         1.29321429391631   -1.81300093335742    3.86309205908613
C        -1.14767622765722   -2.58730338502619    4.77360363644703
N        -2.24677266070584   -2.11950208723171    2.84147572799074
C         1.15037663398197   -2.30928067137740    5.15703222082965
H         2.28263524182279   -1.54714554410279    3.52173107405412
C        -0.07578114714793   -2.72786752356632    5.63726017376513
N        -2.47935066548557   -2.89696971719092    4.90932952245326
C        -3.08225106292761   -2.58483097975805    3.72102345600545
H         2.02623469051740   -2.40785394121227    5.78281010994393
H        -0.18878078904107   -3.16109370002201    6.62011558514918
H        -2.91989327018341   -3.28197888098267    5.72771106306910
C        -4.54199921304296   -2.75973636221399    3.51606543500752
H        -4.83243274264143   -2.25265578803777    2.60174532621489
H        -5.09221412594993   -2.33880854266936    4.35586447927014
H        -4.79265814331503   -3.81650232504704    3.43111293528322
102
 energy: -147.623953203272 gnorm: 0.037322397284 xtb: 6.4.1 (1a32961)
N        -0.90891550430023   -2.07819216042345   -0.28813535983181
C        -2.18547919359903   -1.66612923471882   -0.38010176711411
C        -3.10105027263647   -2.33784676409579   -1.20092740606209
C        -2.70165371291877   -3.44470887755821   -1.91539125459269
C        -1.37947249914457   -3.86889889817490   -1.79597536845049
C        -0.53385585784131   -3.14985844104428   -0.97751953616280
H         0.49994418960075   -3.44395363062015   -0.85750096801265
H        -1.02308252810388   -4.73550065982361   -2.32758470373672
H        -4.11919207346987   -1.99573677765428   -1.28196977060869
C        -2.54544647597669   -0.50359349373462    0.41479657973879
N        -1.55742840091774    0.07612968562474    1.12503275288546
C        -1.85479120797778    1.13082713150092    1.87532198112856
C        -3.12336855274398    1.66487261190123    1.98207183178039
C        -4.15433018816814    1.07752567386501    1.25421018082199
C        -3.85392389739868   -0.00794428373570    0.46159643883937
H        -4.63716453481267   -0.47881779221441   -0.10830469199123
H        -3.30559897477148    2.51166349901625    2.62279965643281
H        -1.02614003412086    1.56783537605375    2.41060962986085
Ir        0.42150000000000   -0.81650000000000    0.91330000000000
H         0.87260000000000   -2.23030000000000    1.54050000000000
B         0.48331768643551    0.46622489511602   -0.72701254289208
O         0.10801233055489    0.00142269252333   -1.98128985431638
C        -0.01683896342260    1.10312065286864   -2.88288390973710
C         0.48270099825412    0.72275304330672   -4.27544023460405
H         1.49098392487447    0.32474925642110   -4.23637733306948
H         0.46031941276472    1.59803803464954   -4.91969282617713
H        -0.16839944906390   -0.04060587351404   -4.69355428582977
C        -1.51607281851385    1.43583118229137   -2.96483010702458
H        -1.70356277969075    2.24094079899663   -3.66875058214799
H        -2.04911892112098    0.54487827825838   -3.28970102318149
H        -1.88568941115229    1.70904220225555   -1.97850543408756
C         0.80750320242110    2.22049035370136   -2.16943604702410
O         0.76617151273664    1.80967907109272   -0.79993757042353
C         2.28374753488712    2.21411966373918   -2.58981584022890