111
 energy: -163.078916013320 gnorm: 0.011429522403 xtb: 6.4.1 (1a32961)
N        -0.96510000000000   -2.11529999999999   -0.24090000000002
C        -2.24700000000001   -1.69840000000001   -0.36219999999998
C        -3.14039999999998   -2.36820000000001   -1.21200000000002
C        -2.70219999999998   -3.47560000000000   -1.93050000000003
C        -1.37779999999999   -3.89880000000000   -1.78759999999999
C        -0.54290000000001   -3.18670000000001   -0.93510000000001
H         0.49810000000000   -3.45630000000000   -0.78939999999999
H        -0.99570000000000   -4.76030000000000   -2.32770000000001
H        -4.16499999999999   -2.02890000000000   -1.31829999999999
C        -2.62130000000000   -0.50949999999999    0.44100000000000
N        -1.62600000000000    0.07330000000001    1.16020000000001
C        -1.89680000000001    1.15240000000001    1.91690000000000
C        -3.17230000000000    1.70330000000000    1.99649999999999
C        -4.20510000000000    1.11739999999999    1.26270000000000
C        -3.92609999999999    0.00250000000000    0.47820000000001
H        -4.71960000000001   -0.46420000000000   -0.09520000000001
H        -3.34630000000000    2.57510000000000    2.62070000000000
H        -1.04449999999999    1.57420000000000    2.43690000000000
Ir        0.42150000000000   -0.81650000000000    0.91330000000000
H         0.87260000000000   -2.23030000000000    1.54050000000000
B         0.50670000000000    0.41560000000000   -0.81540000000000
O         0.19500000000000   -0.04700000000000   -2.09150000000000
C         0.00650000000002    1.10040000000001   -2.95430000000000
C         0.49020000000001    0.74740000000000   -4.35780000000000
H         1.51609999999998    0.37380000000000   -4.33700000000000
H         0.44730000000001    1.62239999999999   -5.01670000000000
H        -0.14739999999999   -0.03390000000002   -4.78430000000001
C        -1.50119999999999    1.39560000000001   -2.96670000000001
H        -1.75370000000000    2.21459999999999   -3.64850000000000
H        -2.03200000000000    0.49450000000001   -3.28930000000001
H        -1.85170000000000    1.65210000000000   -1.96220000000000
C         0.84230000000000    2.20670000000001   -2.22039999999999
O         0.75200000000000    1.78260000000000   -0.83690000000001
C         2.32930000000001    2.18619999999999   -2.59899999999997
H         2.74130000000000    1.18500000000001   -2.45750000000000
H         2.48870000000000    2.51300000000000   -3.63180000000000
H         2.87199999999999    2.86270000000000   -1.93200000000000
C         0.28440000000002    3.62290000000000   -2.33660000000001
H        -0.72649999999999    3.69040000000000   -1.92910000000000
H         0.92130000000000    4.31480000000000   -1.77610000000000
H         0.26430000000000    3.94810000000000   -3.38320000000000
B         1.56300000000000    0.60959999999999    1.84840000000000
O         2.92780000000000    0.55230000000000    2.15020000000000
C         3.36329999999999    1.88659999999999    2.50260000000003
C         4.53140000000000    1.78590000000000    3.47739999999997
H         4.27910000000000    1.16090000000001    4.33689999999998
H         5.39390000000001    1.33790000000000    2.97340000000001
H         4.82390000000000    2.77870000000000    3.83820000000000
C         3.79700000000000    2.56850000000001    1.19669999999998
H         4.20019999999999    3.57090000000000    1.37680000000000
H         4.56740000000000    1.95560000000000    0.72110000000000
H         2.95239999999999    2.63260000000000    0.50540000000001
C         2.05039999999998    2.50090000000002    3.09320000000001
O         1.03749999999998    1.81620000000003    2.31909999999998
C         1.89100000000000    4.00449999999999    2.88650000000000
H         1.87290000000000    4.25440000000000    1.82410000000000
H         0.94939999999999    4.34260000000000    3.33170000000000
H         2.71079999999999    4.55150000000000    3.36630000000000
C         1.82470000000001    2.13200000000001    4.56520000000001
H         1.92610000000000    1.05330000000000    4.71320000000000
H         2.52609999999999    2.65280000000000    5.22539999999999
H         0.80629999999999    2.41580000000001    4.84900000000001
B         2.27820000000000   -1.33090000000000    0.17410000000001
O         2.89460000000000   -2.57740000000000    0.38450000000001
C         4.26930000000000   -2.48199999999999   -0.07209999999998
C         5.10900000000001   -2.05380000000000    1.14009999999998
H         4.76350000000000   -1.08740000000000    1.51750000000000
H         4.98050000000000   -2.79470000000000    1.93590000000001
H         6.17420000000000   -1.99290000000000    0.89299999999999
C         4.71949999999999   -3.84660000000000   -0.58469999999997
H         4.75280000000000   -4.56130000000000    0.24420000000001
H         5.72330000000000   -3.78370000000000   -1.02010000000000
H         4.03500000000001   -4.23600000000000   -1.34170000000000
C         4.16439999999999   -1.36220000000000   -1.16300000000001
O         3.08519999999999   -0.55029999999999   -0.65400000000000
C         5.40720000000001   -0.48870000000001   -1.31549999999999
H         6.27320000000001   -1.09010000000000   -1.61529999999999
H         5.23300000000000    0.26930000000000   -2.08590000000002
H         5.64270000000000    0.02649999999999   -0.38240000000000
C         3.71800000000002   -1.89829999999998   -2.53110000000000
H         2.82529999999999   -2.52159999999999   -2.42739999999999
H         3.46090000000001   -1.05250000000000   -3.17549999999999
H         4.50569999999999   -2.48290000000000   -3.01789999999998
H        -3.38500000000001   -4.00130000000000   -2.59310000000000
H        -5.21400000000000    1.52079999999999    1.29960000000000
C         0.23590000000000   -1.68139999999997    2.96029999999999
C        -1.16830144533996   -1.74342259357111    3.27156561585215
C         1.02219575036606   -2.30818440098665    3.93463096832334
C        -2.44068816107833   -1.96208897915058    2.55676540586995
C        -1.57722543024339   -1.85059122040432    4.61442426412616
C         0.51288630045180   -2.84528200010797    5.12102039023458
H         2.06408363873934   -2.48366958062029    3.70032156651542
N        -3.56419368055079   -1.35677827594117    2.85688136538743
O        -2.63580779503760   -3.05722985357630    1.74932805283443
C        -0.75434330281901   -2.44800372069316    5.54180229030629
H        -2.61152677110146   -1.63948668105724    4.86035765267336
C         1.13791476291510   -3.98838417348230    5.86018835490239
C        -4.54500192098997   -1.95974528764569    2.10574202784659
C        -3.96555701461060   -3.03741219234114    1.42649134764508
H        -1.15287922022822   -2.71707986912802    6.51122276340293
H         0.74789627445745   -4.90592474888145    5.40968591612978
H         0.82338520129010   -3.98802539044490    6.90437407123050
H         2.22321564644806   -4.00725183843375    5.79129442671967
C        -5.85060863170035   -1.55706351198795    1.80884686993219
C        -4.66931565862385   -3.76607128089232    0.47616206374023
C        -6.50898205553548   -2.20767544209276    0.77445831346325
H        -6.28531625858519   -0.69044395787656    2.28441154198285
C        -5.93517378014219   -3.30579001974214    0.13196432420930
H        -4.22462421956760   -4.59883305984513   -0.04592527334126
H        -7.46578615984913   -1.83448529249954    0.42837199554267
H        -6.46386143645259   -3.77120328399936   -0.69208653462321
