      -----------------------------------------------------------      
     |                   =====================                   |     
     |                           x T B                           |     
     |                   =====================                   |     
     |                         S. Grimme                         |     
     |          Mulliken Center for Theoretical Chemistry        |     
     |                    University of Bonn                     |     
      -----------------------------------------------------------      

   * xtb version 6.4.0 (f63f532) compiled by 'knkr256@seskscpg008.prim.scp' on 2021-04-09

   xtb is free software: you can redistribute it and/or modify it under
   the terms of the GNU Lesser General Public License as published by
   the Free Software Foundation, either version 3 of the License, or
   (at your option) any later version.
   
   xtb is distributed in the hope that it will be useful,
   but WITHOUT ANY WARRANTY; without even the implied warranty of
   MERCHANTABILITY or FITNESS FOR A PARTICULAR PURPOSE.  See the
   GNU Lesser General Public License for more details.
   
   Cite this work as:
   * C. Bannwarth, E. Caldeweyher, S. Ehlert, A. Hansen, P. Pracht,
     J. Seibert, S. Spicher, S. Grimme, WIREs Comput. Mol. Sci., 2020, 11,
     e01493. DOI: 10.1002/wcms.1493
   
   for GFN2-xTB:
   * C. Bannwarth, S. Ehlert and S. Grimme., J. Chem. Theory Comput., 2019,
     15, 1652-1671. DOI: 10.1021/acs.jctc.8b01176
   for GFN1-xTB:
   * S. Grimme, C. Bannwarth, P. Shushkov, J. Chem. Theory Comput., 2017,
     13, 1989-2009. DOI: 10.1021/acs.jctc.7b00118
   for GFN0-xTB:
   * P. Pracht, E. Caldeweyher, S. Ehlert, S. Grimme, ChemRxiv, 2019, preprint.
     DOI: 10.26434/chemrxiv.8326202.v1
   for GFN-FF:
   * S. Spicher and S. Grimme, Angew. Chem. Int. Ed., 2020, 59, 15665-15673.
     DOI: 10.1002/anie.202004239
   
   for DFT-D4:
   * E. Caldeweyher, C. Bannwarth and S. Grimme, J. Chem. Phys., 2017,
     147, 034112. DOI: 10.1063/1.4993215
   * E. Caldeweyher, S. Ehlert, A. Hansen, H. Neugebauer, S. Spicher,
     C. Bannwarth and S. Grimme, J. Chem. Phys., 2019, 150, 154122.
     DOI: 10.1063/1.5090222
   * E. Caldeweyher, J.-M. Mewes, S. Ehlert and S. Grimme, Phys. Chem. Chem. Phys.
     2020, 22, 8499-8512. DOI: 10.1039/D0CP00502A
   
   for sTDA-xTB:
   * S. Grimme and C. Bannwarth, J. Chem. Phys., 2016, 145, 054103.
     DOI: 10.1063/1.4959605
   
   in the mass-spec context:
   * V. Asgeirsson, C. Bauer and S. Grimme, Chem. Sci., 2017, 8, 4879.
     DOI: 10.1039/c7sc00601b
   * J. Koopman and S. Grimme, ACS Omega 2019, 4, 12, 15120-15133.
     DOI: 10.1021/acsomega.9b02011
   
   for metadynamics refer to:
   * S. Grimme, J. Chem. Theory Comput., 2019, 155, 2847-2862
     DOI: 10.1021/acs.jctc.9b00143
   
   for SPH calculations refer to:
   * S. Spicher and S. Grimme, J. Chem. Theory Comput., 2021, 17, 1701-1714
     DOI: 10.1021/acs.jctc.0c01306
   
   with help from (in alphabetical order)
   P. Atkinson, C. Bannwarth, F. Bohle, G. Brandenburg, E. Caldeweyher
   M. Checinski, S. Dohm, S. Ehlert, S. Ehrlich, I. Gerasimov, J. Koopman
   C. Lavinge, S. Lehtola, F. März, M. Müller, F. Musil, H. Neugebauer
   J. Pisarek, P. Pracht, J. Seibert, P. Shushkov, S. Spicher, M. Stahn
   T. Strunk, J. Stückrath, T. Rose, and J. Unsleber
   
 * started run on 2021/10/08 at 07:22:12.271     

           -------------------------------------------------
          |                Calculation Setup                |
           -------------------------------------------------

          program call               : xtb xtbopt.xyz --sp --alpb thf -P 6
          hostname                   : seskscpg010.prim.scp
          coordinate file            : xtbopt.xyz
          omp threads                :                     6
          number of atoms            :                   108
          number of electrons        :                   284
          charge                     :                     0
          spin                       :                   0.0
          first test random number   :      0.58277310642214

   ID    Z sym.   atoms
    1    7 N      1, 11, 100
    2    6 C      2-6, 10, 12-15, 23, 24, 28, 32, 34, 38, 44, 45, 49, 53, 55,
                  59, 65, 66, 70, 74, 76, 80, 86-89, 91, 93, 96, 97, 101-103,
                  105
    3    1 H      7-9, 16-18, 20, 25-27, 29-31, 35-37, 39-41, 46-48, 50-52,
                  56-58, 60-62, 67-69, 71-73, 77-79, 81-85, 90, 92, 94, 95,
                  98, 99, 104, 106-108
    4   77 Ir     19
    5    5 B      21, 42, 63
    6    8 O      22, 33, 43, 54, 64, 75

molecular fragmentation (1/2 indicates fragments):
111111111111111111111111111111111111111111111111111111111111111111111111
111111111111122222222222222222222222
# atoms in fragment 1/2:    85    23
 fragment masses (1/2) :      730.32      168.21
CMA distance (Bohr)    :  12.909
constraining FC (au)   :  0.0500

           -------------------------------------------------
          |                 G F N 2 - x T B                 |
           -------------------------------------------------

        Reference                      10.1021/acs.jctc.8b01176
      * Hamiltonian:
        H0-scaling (s, p, d)           1.850000    2.230000    2.230000
        zeta-weighting                 0.500000
      * Dispersion:
        s8                             2.700000
        a1                             0.520000
        a2                             5.000000
        s9                             5.000000
      * Repulsion:
        kExp                           1.500000    1.000000
        rExp                           1.000000
      * Coulomb:
        alpha                          2.000000
        third order                    shell-resolved
        anisotropic                    true
        a3                             3.000000
        a5                             4.000000
        cn-shift                       1.200000
        cn-exp                         4.000000
        max-rad                        5.000000

      * Solvation model:               ALPB
        Solvent                        thf
        Parameter file                 internal GFN2-xTB/ALPB
        Dielectric constant                7.6000E+00
        Reference state                gsolv [1 M gas/solution]
        Free energy shift                  5.3248E-03 Eh       3.3414E+00 kcal/mol
        Temperature                        2.9815E+02 K
        Density                            8.8300E-01 kg/L
        Solvent mass                       7.2106E+01 g/mol
        Interaction kernel             P16
        Born radius scaling (c1)           1.7311E+00
        Born radii integrator          GBOBC
        Born offset                        0.0000E+00 a0       0.0000E+00 AA
        H-bond correction              true
        Ion screening                  false
        Surface tension                    1.0000E-05 Eh       1.5569E+01 dyn/cm
        Grid points                               230 per atom
q/qsh data taken from xtbrestart
CAMM data taken from xtbrestart

          ...................................................
          :                      SETUP                      :
          :.................................................:
          :  # basis functions                 273          :
          :  # atomic orbitals                 272          :
          :  # shells                          162          :
          :  # electrons                       284          :
          :  max. iterations                   250          :
          :  Hamiltonian                  GFN2-xTB          :
          :  restarted?                       true          :
          :  GBSA solvation                   true          :
          :  PC potential                    false          :
          :  electronic temp.          300.0000000     K    :
          :  accuracy                    1.0000000          :
          :  -> integral cutoff          0.2500000E+02      :
          :  -> integral neglect         0.1000000E-07      :
          :  -> SCF convergence          0.1000000E-05 Eh   :
          :  -> wf. convergence          0.1000000E-03 e    :
          :  Broyden damping             0.4000000          :
          ...................................................

 iter      E             dE          RMSdq      gap      omega  full diag
   1   -156.8560623 -0.156856E+03  0.305E-05    0.88       0.0  T
   2   -156.8560623  0.174566E-09  0.492E-05    0.88     195.5  T
   3   -156.8560623 -0.206938E-09  0.194E-05    0.88     494.9  T

   *** convergence criteria satisfied after 3 iterations ***

         #    Occupation            Energy/Eh            Energy/eV
      -------------------------------------------------------------
         1        2.0000           -0.6736505             -18.3310
       ...           ...                  ...                  ...
       136        2.0000           -0.3615521              -9.8383
       137        2.0000           -0.3446941              -9.3796
       138        2.0000           -0.3295548              -8.9676
       139        2.0000           -0.3195295              -8.6948
       140        2.0000           -0.3162343              -8.6052
       141        2.0000           -0.3088846              -8.4052
       142        2.0000           -0.3066605              -8.3447 (HOMO)
       143                         -0.2742339              -7.4623 (LUMO)
       144                         -0.2464517              -6.7063
       145                         -0.2439939              -6.6394
       146                         -0.2403574              -6.5405
       147                         -0.2284857              -6.2174
       ...                                ...                  ...
       272                          3.7220742             101.2828
      -------------------------------------------------------------
                  HL-Gap            0.0324266 Eh            0.8824 eV
             Fermi-level           -0.2904035 Eh           -7.9023 eV

 SCC (total)                   0 d,  0 h,  0 min,  0.119 sec
 SCC setup                      ...        0 min,  0.003 sec (  2.454%)
 Dispersion                     ...        0 min,  0.003 sec (  2.272%)
 classical contributions        ...        0 min,  0.000 sec (  0.152%)
 integral evaluation            ...        0 min,  0.034 sec ( 28.803%)
 iterations                     ...        0 min,  0.035 sec ( 29.136%)
 molecular gradient             ...        0 min,  0.043 sec ( 36.622%)
 printout                       ...        0 min,  0.001 sec (  0.509%)

         :::::::::::::::::::::::::::::::::::::::::::::::::::::
         ::                     SUMMARY                     ::
         :::::::::::::::::::::::::::::::::::::::::::::::::::::
         :: total energy            -154.757680586460 Eh    ::
         :: total w/o Gsasa/hb      -154.711720227788 Eh    ::
         :: gradient norm              0.033516793211 Eh/a0 ::
         :: HOMO-LUMO gap              0.882373290512 eV    ::
         ::.................................................::
         :: SCC energy              -156.856062320321 Eh    ::
         :: -> isotropic ES            0.243729122547 Eh    ::
         :: -> anisotropic ES          0.015860795049 Eh    ::
         :: -> anisotropic XC          0.062210224551 Eh    ::
         :: -> dispersion             -0.147947785090 Eh    ::
         :: -> Gsolv                  -0.055730849378 Eh    ::
         ::    -> Gelec               -0.009770490706 Eh    ::
         ::    -> Gsasa               -0.048604583848 Eh    ::
         ::    -> Ghb                 -0.002680590268 Eh    ::
         ::    -> Gshift               0.005324815444 Eh    ::
         :: repulsion energy           2.090393657490 Eh    ::
         :: add. restraining           0.000000000000 Eh    ::
         :: total charge               0.000000000005 e     ::
         :::::::::::::::::::::::::::::::::::::::::::::::::::::

           -------------------------------------------------
          |                Property Printout                |
           -------------------------------------------------

    * Orbital Energies and Occupations

         #    Occupation            Energy/Eh            Energy/eV
      -------------------------------------------------------------
         1        2.0000           -0.6736505             -18.3310
       ...           ...                  ...                  ...
       130        2.0000           -0.3867229             -10.5233
       131        2.0000           -0.3865984             -10.5199
       132        2.0000           -0.3855410             -10.4911
       133        2.0000           -0.3814647             -10.3802
       134        2.0000           -0.3808330             -10.3630
       135        2.0000           -0.3775294             -10.2731
       136        2.0000           -0.3615521              -9.8383
       137        2.0000           -0.3446941              -9.3796
       138        2.0000           -0.3295548              -8.9676
       139        2.0000           -0.3195295              -8.6948
       140        2.0000           -0.3162343              -8.6052
       141        2.0000           -0.3088846              -8.4052
       142        2.0000           -0.3066605              -8.3447 (HOMO)
       143                         -0.2742339              -7.4623 (LUMO)
       144                         -0.2464517              -6.7063
       145                         -0.2439939              -6.6394
       146                         -0.2403574              -6.5405
       147                         -0.2284857              -6.2174
       148                         -0.2098007              -5.7090
       149                         -0.2050668              -5.5802
       150                         -0.2027686              -5.5176
       151                         -0.1827021              -4.9716
       152                         -0.1472859              -4.0079
       153                         -0.1251169              -3.4046
       ...                                ...                  ...
       272                          3.7220742             101.2828
      -------------------------------------------------------------
                  HL-Gap            0.0324266 Eh            0.8824 eV
             Fermi-level           -0.2904035 Eh           -7.9023 eV

     #   Z          covCN         q      C6AA      α(0)
     1   7 N        2.547    -0.122    23.692     7.229
     2   6 C        2.956     0.077    26.276     8.408
     3   6 C        2.918    -0.042    29.052     8.839
     4   6 C        2.924    -0.023    28.572     8.766
     5   6 C        2.915    -0.044    29.089     8.844
     6   6 C        2.893     0.049    26.908     8.505
     7   1 H        0.926     0.051     2.308     2.376
     8   1 H        0.926     0.054     2.272     2.357
     9   1 H        0.926     0.045     2.387     2.416
    10   6 C        2.954     0.073    26.370     8.423
    11   7 N        2.566    -0.124    23.722     7.233
    12   6 C        2.890     0.042    27.052     8.527
    13   6 C        2.915    -0.045    29.123     8.849
    14   6 C        2.922    -0.025    28.617     8.773
    15   6 C        2.918    -0.046    29.133     8.851
    16   1 H        0.926     0.045     2.388     2.416
    17   1 H        0.926     0.051     2.307     2.375
    18   1 H        0.926     0.076     2.020     2.223
    19  77 Ir       5.949    -0.158   388.497    36.449
    20   1 H        0.977     0.083     1.939     2.176
    21   5 B        2.626     0.401    16.062     6.774
    22   8 O        1.638    -0.412    21.090     6.199
    23   6 C        3.835     0.131    18.440     6.109
    24   6 C        3.755    -0.121    22.867     6.819
    25   1 H        0.925     0.053     2.284     2.363
    26   1 H        0.925     0.044     2.393     2.419
    27   1 H        0.925     0.050     2.321     2.383
    28   6 C        3.754    -0.108    22.623     6.782
    29   1 H        0.925     0.046     2.364     2.404
    30   1 H        0.925     0.040     2.445     2.445
    31   1 H        0.925     0.028     2.617     2.530
    32   6 C        3.840     0.131    18.433     6.108
    33   8 O        1.637    -0.404    20.940     6.177
    34   6 C        3.755    -0.119    22.832     6.813
    35   1 H        0.925     0.047     2.354     2.399
    36   1 H        0.925     0.046     2.373     2.409
    37   1 H        0.925     0.049     2.328     2.386
    38   6 C        3.754    -0.119    22.842     6.815
    39   1 H        0.925     0.047     2.356     2.400
    40   1 H        0.925     0.053     2.288     2.366
    41   1 H        0.925     0.044     2.392     2.418
    42   5 B        2.624     0.405    16.033     6.770
    43   8 O        1.637    -0.383    20.537     6.117
    44   6 C        3.836     0.129    18.472     6.115
    45   6 C        3.755    -0.126    22.970     6.834
    46   1 H        0.925     0.055     2.257     2.349
    47   1 H        0.925     0.056     2.251     2.346
    48   1 H        0.925     0.049     2.329     2.386
    49   6 C        3.755    -0.121    22.881     6.821
    50   1 H        0.925     0.048     2.344     2.394
    51   1 H        0.925     0.044     2.391     2.418
    52   1 H        0.925     0.053     2.286     2.364
    53   6 C        3.832     0.128    18.489     6.118
    54   8 O        1.637    -0.383    20.525     6.115
    55   6 C        3.755    -0.124    22.935     6.829
    56   1 H        0.925     0.053     2.283     2.363
    57   1 H        0.925     0.055     2.264     2.353
    58   1 H        0.925     0.048     2.345     2.395
    59   6 C        3.755    -0.124    22.934     6.828
    60   1 H        0.925     0.045     2.379     2.412
    61   1 H        0.925     0.052     2.292     2.367
    62   1 H        0.925     0.051     2.306     2.375
    63   5 B        2.624     0.400    16.089     6.782
    64   8 O        1.637    -0.378    20.437     6.102
    65   6 C        3.832     0.125    18.526     6.124
    66   6 C        3.755    -0.130    23.044     6.845
    67   1 H        0.925     0.059     2.214     2.327
    68   1 H        0.925     0.053     2.278     2.360
    69   1 H        0.925     0.049     2.334     2.389
    70   6 C        3.755    -0.129    23.026     6.842
    71   1 H        0.925     0.060     2.203     2.321
    72   1 H        0.925     0.050     2.321     2.383
    73   1 H        0.925     0.052     2.301     2.372
    74   6 C        3.828     0.127    18.505     6.121
    75   8 O        1.637    -0.383    20.534     6.117
    76   6 C        3.755    -0.123    22.922     6.827
    77   1 H        0.925     0.050     2.321     2.383
    78   1 H        0.925     0.052     2.290     2.367
    79   1 H        0.925     0.054     2.270     2.356
    80   6 C        3.755    -0.122    22.898     6.823
    81   1 H        0.925     0.040     2.454     2.450
    82   1 H        0.925     0.050     2.316     2.380
    83   1 H        0.925     0.054     2.276     2.359
    84   1 H        0.926     0.051     2.308     2.376
    85   1 H        0.926     0.049     2.334     2.389
    86   6 C        2.829    -0.021    28.531     8.753
    87   6 C        2.923    -0.033    28.812     8.802
    88   6 C        2.922    -0.037    28.932     8.821
    89   6 C        2.922    -0.047    29.166     8.856
    90   1 H        0.925     0.021     2.714     2.576
    91   6 C        2.923    -0.042    29.038     8.837
    92   1 H        0.926     0.040     2.450     2.448
    93   6 C        2.972     0.006    27.878     8.661
    94   1 H        0.925     0.025     2.661     2.551
    95   1 H        0.925     0.032     2.556     2.500
    96   6 C        3.815    -0.082    22.044     6.682
    97   6 C        2.959     0.103    25.724     8.319
    98   1 H        0.924     0.070     2.083     2.257
    99   1 H        0.924     0.055     2.254     2.348
   100   7 N        1.841    -0.253    27.449     7.764
   101   6 C        2.917    -0.049    29.226     8.865
   102   6 C        2.906     0.054    26.798     8.488
   103   6 C        2.927    -0.017    28.441     8.746
   104   1 H        0.926     0.040     2.447     2.446
   105   6 C        2.914    -0.049    29.209     8.862
   106   1 H        0.925     0.039     2.458     2.452
   107   1 H        0.926     0.041     2.432     2.439
   108   1 H        0.926     0.041     2.431     2.438

 Mol. C6AA /au·bohr⁶  :     127101.794957
 Mol. C8AA /au·bohr⁸  :    3366285.053286
 Mol. α(0) /au        :        555.328042


Wiberg/Mayer (AO) data.
largest (>0.10) Wiberg bond orders for each atom

 ---------------------------------------------------------------------------
     #   Z sym  total        # sym  WBO       # sym  WBO       # sym  WBO
 ---------------------------------------------------------------------------
     1   7 N    3.397 --     6 C    1.387     2 C    1.308    19 Ir   0.444
     2   6 C    3.978 --     3 C    1.348     1 N    1.308    10 C    1.093
     3   6 C    3.988 --     4 C    1.484     2 C    1.348     9 H    0.962
                             6 C    0.106
     4   6 C    3.984 --     3 C    1.484     5 C    1.380    84 H    0.969
     5   6 C    3.980 --     6 C    1.462     4 C    1.380     8 H    0.969
     6   6 C    3.978 --     5 C    1.462     1 N    1.387     7 H    0.957
                             3 C    0.106
     7   1 H    0.997 --     6 C    0.957
     8   1 H    0.997 --     5 C    0.969
     9   1 H    0.998 --     3 C    0.962
    10   6 C    3.979 --    15 C    1.352    11 N    1.303     2 C    1.093
    11   7 N    3.412 --    12 C    1.385    10 C    1.303    19 Ir   0.441
    12   6 C    3.973 --    13 C    1.459    11 N    1.385    18 H    0.948
                            15 C    0.105
    13   6 C    3.982 --    12 C    1.459    14 C    1.383    17 H    0.969
    14   6 C    3.982 --    15 C    1.480    13 C    1.383    85 H    0.969
    15   6 C    3.989 --    14 C    1.480    10 C    1.352    16 H    0.962
                            12 C    0.105
    16   1 H    0.997 --    15 C    0.962
    17   1 H    0.997 --    13 C    0.969
    18   1 H    0.994 --    12 C    0.948
    19  77 Ir   5.195 --    63 B    0.871    42 B    0.858    21 B    0.722
                            86 C    0.593    20 H    0.531     1 N    0.444
                            11 N    0.441
    20   1 H    0.989 --    19 Ir   0.531    86 C    0.347
    21   5 B    3.263 --    33 O    1.109    22 O    1.086    19 Ir   0.722
    22   8 O    2.186 --    21 B    1.086    23 C    0.944
    23   6 C    3.944 --    24 C    0.997    28 C    0.990    22 O    0.944
                            32 C    0.941
    24   6 C    3.994 --    23 C    0.997    26 H    0.984    27 H    0.983
                            25 H    0.983
    25   1 H    0.997 --    24 C    0.983
    26   1 H    0.997 --    24 C    0.984
    27   1 H    0.997 --    24 C    0.983
    28   6 C    3.997 --    23 C    0.990    31 H    0.985    29 H    0.984
                            30 H    0.984
    29   1 H    0.997 --    28 C    0.984
    30   1 H    0.998 --    28 C    0.984
    31   1 H    0.999 --    28 C    0.985
    32   6 C    3.941 --    38 C    0.997    34 C    0.991    23 C    0.941
                            33 O    0.940
    33   8 O    2.200 --    21 B    1.109    32 C    0.940
    34   6 C    3.995 --    32 C    0.991    36 H    0.984    35 H    0.983
                            37 H    0.982
    35   1 H    0.998 --    34 C    0.983
    36   1 H    0.997 --    34 C    0.984
    37   1 H    0.997 --    34 C    0.982
    38   6 C    3.994 --    32 C    0.997    41 H    0.984    39 H    0.983
                            40 H    0.983
    39   1 H    0.998 --    38 C    0.983
    40   1 H    0.997 --    38 C    0.983
    41   1 H    0.997 --    38 C    0.984
    42   5 B    3.335 --    43 O    1.117    54 O    1.107    19 Ir   0.858
    43   8 O    2.225 --    42 B    1.117    44 C    0.936
    44   6 C    3.937 --    45 C    0.997    49 C    0.991    53 C    0.939
                            43 O    0.936
    45   6 C    3.993 --    44 C    0.997    48 H    0.983    46 H    0.982
                            47 H    0.982
    46   1 H    0.997 --    45 C    0.982
    47   1 H    0.997 --    45 C    0.982
    48   1 H    0.996 --    45 C    0.983
    49   6 C    3.994 --    44 C    0.991    50 H    0.983    51 H    0.983
                            52 H    0.979
    50   1 H    0.997 --    49 C    0.983
    51   1 H    0.998 --    49 C    0.983
    52   1 H    0.997 --    49 C    0.979
    53   6 C    3.938 --    55 C    0.996    59 C    0.991    44 C    0.939
                            54 O    0.935
    54   8 O    2.226 --    42 B    1.107    53 C    0.935
    55   6 C    3.993 --    53 C    0.996    58 H    0.983    57 H    0.983
                            56 H    0.983
    56   1 H    0.997 --    55 C    0.983
    57   1 H    0.997 --    55 C    0.983
    58   1 H    0.996 --    55 C    0.983
    59   6 C    3.994 --    53 C    0.991    61 H    0.983    62 H    0.983
                            60 H    0.982
    60   1 H    0.998 --    59 C    0.982
    61   1 H    0.996 --    59 C    0.983
    62   1 H    0.997 --    59 C    0.983
    63   5 B    3.357 --    75 O    1.113    64 O    1.112    19 Ir   0.871
    64   8 O    2.228 --    63 B    1.112    65 C    0.940
    65   6 C    3.938 --    70 C    0.996    66 C    0.991    64 O    0.940
                            74 C    0.937
    66   6 C    3.992 --    65 C    0.991    69 H    0.983    68 H    0.983
                            67 H    0.978
    67   1 H    0.997 --    66 C    0.978
    68   1 H    0.997 --    66 C    0.983
    69   1 H    0.997 --    66 C    0.983
    70   6 C    3.992 --    65 C    0.996    72 H    0.984    73 H    0.982
                            71 H    0.982
    71   1 H    0.996 --    70 C    0.982
    72   1 H    0.996 --    70 C    0.984
    73   1 H    0.997 --    70 C    0.982
    74   6 C    3.936 --    76 C    0.996    80 C    0.991    75 O    0.938
                            65 C    0.937
    75   8 O    2.229 --    63 B    1.113    74 C    0.938
    76   6 C    3.993 --    74 C    0.996    77 H    0.983    78 H    0.983
                            79 H    0.982
    77   1 H    0.996 --    76 C    0.983
    78   1 H    0.997 --    76 C    0.983
    79   1 H    0.997 --    76 C    0.982
    80   6 C    3.995 --    74 C    0.991    81 H    0.984    83 H    0.983
                            82 H    0.983
    81   1 H    0.998 --    80 C    0.984
    82   1 H    0.997 --    80 C    0.983
    83   1 H    0.996 --    80 C    0.983
    84   1 H    0.996 --     4 C    0.969
    85   1 H    0.997 --    14 C    0.969
    86   6 C    3.952 --    87 C    1.394    88 C    1.372    19 Ir   0.593
                            20 H    0.347
    87   6 C    3.989 --    89 C    1.430    86 C    1.394    90 H    0.964
                            91 C    0.104
    88   6 C    3.989 --    91 C    1.461    86 C    1.372    92 H    0.960
                            89 C    0.105
    89   6 C    3.986 --    87 C    1.430    93 C    1.416    94 H    0.967
                            88 C    0.105
    90   1 H    0.999 --    87 C    0.964
    91   6 C    3.988 --    88 C    1.461    93 C    1.391    95 H    0.968
                            87 C    0.104
    92   1 H    0.998 --    88 C    0.960
    93   6 C    3.983 --    89 C    1.416    91 C    1.391    96 C    0.994
    94   1 H    0.999 --    89 C    0.967
    95   1 H    0.997 --    91 C    0.968
    96   6 C    3.993 --    97 C    0.995    93 C    0.994    98 H    0.964
                            99 H    0.959
    97   6 C    3.975 --   100 N    1.416   101 C    1.384    96 C    0.995
                           105 C    0.110
    98   1 H    0.994 --    96 C    0.964
    99   1 H    0.997 --    96 C    0.959
   100   7 N    3.052 --   102 C    1.430    97 C    1.416
   101   6 C    3.991 --   103 C    1.462    97 C    1.384   104 H    0.968
                           102 C    0.116
   102   6 C    3.981 --   105 C    1.437   100 N    1.430   106 H    0.963
                           101 C    0.116
   103   6 C    3.990 --   101 C    1.462   105 C    1.425   107 H    0.969
   104   1 H    0.998 --   101 C    0.968
   105   6 C    3.990 --   102 C    1.437   103 C    1.425   108 H    0.970
                            97 C    0.110
   106   1 H    0.998 --   102 C    0.963
   107   1 H    0.998 --   103 C    0.969
   108   1 H    0.998 --   105 C    0.970
 ---------------------------------------------------------------------------

Topologies differ in total number of bonds
Writing topology from bond orders to xtbtopo.mol

molecular dipole:
                 x           y           z       tot (Debye)
 q only:       -0.128       0.247      -0.941
   full:       -1.335       0.163      -1.625       5.362
molecular quadrupole (traceless):
                xx          xy          yy          xz          yz          zz
 q only:       13.247       1.226       4.823      -1.404      10.449     -18.070
  q+dip:       16.640       2.545       9.502      -0.738       8.846     -26.141
   full:       14.328       3.435      11.882      -4.440       5.150     -26.210


           -------------------------------------------------
          | TOTAL ENERGY             -154.757680586460 Eh   |
          | GRADIENT NORM               0.033516793211 Eh/α |
          | HOMO-LUMO GAP               0.882373290512 eV   |
           -------------------------------------------------

------------------------------------------------------------------------
 * finished run on 2021/10/08 at 07:22:12.436     
------------------------------------------------------------------------
 total:
 * wall-time:     0 d,  0 h,  0 min,  0.166 sec
 *  cpu-time:     0 d,  0 h,  0 min,  0.970 sec
 * ratio c/w:     5.859 speedup
 SCF:
 * wall-time:     0 d,  0 h,  0 min,  0.120 sec
 *  cpu-time:     0 d,  0 h,  0 min,  0.717 sec
 * ratio c/w:     5.974 speedup

