108
 energy: -154.757680586230 gnorm: 0.000278670485 xtb: 6.4.0 (f63f532)
N        -0.90351918468890   -1.98542280633083   -0.43015734280868
C        -2.15295377224043   -1.50341615988431   -0.57680520310729
C        -2.99103247355524   -1.97310293130304   -1.59601102598715
C        -2.54073890456572   -2.94557228851948   -2.46108524096757
C        -1.24989928682540   -3.44135523330750   -2.29186172988156
C        -0.48106178672551   -2.92719326262353   -1.26934775526414
H         0.52668059006673   -3.27995908767130   -1.10090532655960
H        -0.85713887299011   -4.20508548153160   -2.94332686128949
H        -3.98317336610768   -1.57074258524071   -1.71961316702516
C        -2.55741093996299   -0.46565544374257    0.36249779145367
N        -1.60339594561082   -0.00706114500326    1.20073356239036
C        -1.92489449156884    0.94528813778700    2.07341373261775
C        -3.18715422645975    1.49308965790426    2.17362673135775
C        -4.18382315283470    1.02790953660127    1.31894736576702
C        -3.86097219488233    0.04507414069566    0.40887259484888
H        -4.62042607648272   -0.33355005899321   -0.25517183589813
H        -3.39212464524375    2.25740513614264    2.90565159157570
H        -1.11835235523885    1.27658287808909    2.70896346667591
Ir        0.42149999999988   -0.81649999999996    0.91329999999996
H         0.87260000000019   -2.23030000000004    1.54049999999980
B         0.36920940594915    0.66271714249782   -0.56444567468438
O        -0.36567565894514    0.45213951108970   -1.72099227438883
C        -0.50571091121480    1.67972599249927   -2.44210113739440
C        -0.39967986586515    1.41527454035687   -3.94184691522063
H         0.49819392786768    0.85146727531185   -4.17215427549020
H        -0.39064895416227    2.35578504717069   -4.48682895671026
H        -1.25919507830553    0.83095776069413   -4.26210519259897
C        -1.90446263451460    2.22867068957522   -2.12339078694507
H        -2.10336808555317    3.14395518423269   -2.67300237844079
H        -2.64389367790792    1.47988259206265   -2.40135378107207
H        -1.99786174378257    2.41312352857835   -1.05489077283388
C         0.63810825122842    2.55864391050630   -1.84002574728141
O         0.84995706909108    1.95274692024425   -0.55839652186802
C         1.95367670282733    2.42130733625677   -2.61609733368458
H         2.22386976391157    1.36972848430368   -2.67772103062616
H         1.87616560084374    2.85511376307271   -3.60891556372439
H         2.73819221871090    2.93352268765340   -2.06393683206457
C         0.29572900682179    4.03741570697756   -1.66996854423843
H        -0.51758757578733    4.17354653526050   -0.96378994441968
H         1.16765488484954    4.56379536813960   -1.28885050394676
H         0.01933870299216    4.46800562932865   -2.62915889371062
B         1.55518847072966    0.65319198247821    1.87068458801211
O         2.91994136692130    0.81389104001461    1.86593378751769
C         3.27263596597320    2.07804153634051    2.44578063754639
C         4.52604784370491    1.92170691837166    3.30572597526977
H         4.40483359033702    1.12577410624387    4.03278521496514
H         5.36771551136602    1.66934632168400    2.66582316694184
H         4.74440898922311    2.85417388209825    3.81928217944857
C         3.56793192981771    3.02627844291386    1.27731691269091
H         3.82589414119985    4.02197782023240    1.62555143492269
H         4.40184508119251    2.62405008861513    0.70622095758438
H         2.70042569810435    3.06028660930292    0.62348346805214
C         1.97638273299272    2.46951906829392    3.23506367571415
O         0.97252059074391    1.65044690098329    2.62143946544113
C         1.57055289302738    3.93767741173704    3.11591906944121
H         1.34523076165597    4.18982954527372    2.08515163101907
H         0.67746575737913    4.10864274773643    3.71199087397084
H         2.36619333700785    4.57875547690462    3.48590423855426
C         2.03248472498214    2.08062861118515    4.71810765753706
H         2.26169920604312    1.02344114582223    4.81663311368676
H         2.76988147442862    2.67329737441666    5.25063119451439
H         1.05431662025654    2.25192934180869    5.16132094106652
B         2.27820000000127   -1.33089999999682    0.17409999999988
O         3.17285303722963   -2.21404407942490    0.73998995277240
C         4.42620973900935   -2.17046944625263    0.04688534090192
C         5.37786268932705   -1.34034132894519    0.91506163272276
H         4.92111205679058   -0.37483510273593    1.11190087253175
H         5.50696897068420   -1.84915505969515    1.86705701448201
H         6.34786785861132   -1.22011272735054    0.44268358475505
C         4.97928658778450   -3.58899815220808   -0.09393002670016
H         5.18257489526388   -3.98413233106229    0.89784228057420
H         5.90360722232931   -3.57488910597024   -0.66471958794802
H         4.26451016666674   -4.24698213890993   -0.57671338068663
C         4.05398043540190   -1.46574868362210   -1.30623646466611
O         2.78774596567010   -0.85729046944521   -1.01466104783896
C         5.03363015436759   -0.38234967136590   -1.75553902824031
H         6.02735187221396   -0.80072573009490   -1.88957928059432
H         4.69559924976999    0.03057778578154   -2.70272337256094
H         5.06619174043785    0.42186121835247   -1.02868591336486
C         3.83148264459452   -2.44932816673037   -2.46348039702133
H         3.10525908194262   -3.20621735987875   -2.18053816880885
H         3.43082361679607   -1.90150438564430   -3.31301764240877
H         4.76279773917854   -2.92444766862970   -2.75632695483759
H        -3.17469528534872   -3.31248078948489   -3.25401353069937
H        -5.18671933461663    1.42446357493546    1.36806811033804
C         0.23590000000270   -1.68140000000037    2.96029999999454
C        -1.02657254952272   -2.10145735687962    3.36567229472041
C         1.21837518537051   -1.54124101881865    3.94031640228566
C        -1.31953892697418   -2.29397002472249    4.70757425816750
H        -1.80343906905048   -2.29537342907833    2.63817117223352
C         0.92715338240492   -1.73564217347469    5.27733209118683
H         2.22410038732007   -1.29062941759364    3.63810493871376
C        -0.35037135972275   -2.10932999119658    5.68186757428292
H        -2.31584020503912   -2.60626369716504    4.99351890140749
H         1.69995377802582   -1.61971463321731    6.02511655832837
C        -0.62931313521083   -2.38106676699226    7.13755562911870
C         0.08785697426847   -3.63268809119645    7.56903554497608
H        -0.27476147269270   -1.55687053004775    7.75769308321602
H        -1.70271654845607   -2.50713918121552    7.29382034686591
N         0.96682993222364   -3.51389166919262    8.55552379809664
C        -0.15395568820182   -4.85084380376084    6.93578175417636
C         1.63075080265290   -4.58923415654381    8.94970811129886
C         0.54366190546259   -5.97004670837877    7.35066887657931
H        -0.87048866333412   -4.90530036102356    6.13075356402186
C         1.46049677467291   -5.84213562927859    8.38530128762286
H         2.33330577804029   -4.42711575324285    9.75761629849360
H         0.37830596192045   -6.92735380695137    6.87737262090006
H         2.02643899565243   -6.68932830526879    8.73991747152688
