99
 energy: -143.632356402002 gnorm: 0.076516654494 xtb: 6.4.0 (f63f532)
N        -0.96510000000000   -2.11530000000000   -0.24090000000000
C        -2.24700000000000   -1.69840000000000   -0.36220000000000
C        -3.14040000000000   -2.36820000000000   -1.21200000000000
C        -2.70220000000000   -3.47560000000000   -1.93050000000000
C        -1.37780000000000   -3.89880000000000   -1.78760000000000
C        -0.54290000000000   -3.18670000000000   -0.93510000000000
H         0.49810000000000   -3.45630000000000   -0.78940000000000
H        -0.99570000000000   -4.76030000000000   -2.32770000000000
H        -4.16500000000000   -2.02890000000000   -1.31830000000000
C        -2.62130000000000   -0.50950000000000    0.44100000000000
N        -1.62600000000000    0.07330000000000    1.16020000000000
C        -1.89680000000000    1.15240000000000    1.91690000000000
C        -3.17230000000000    1.70330000000000    1.99650000000000
C        -4.20510000000000    1.11740000000000    1.26270000000000
C        -3.92610000000000    0.00250000000000    0.47820000000000
H        -4.71960000000000   -0.46420000000000   -0.09520000000000
H        -3.34630000000000    2.57510000000000    2.62070000000000
H        -1.04450000000000    1.57420000000000    2.43690000000000
Ir        0.42150000000000   -0.81650000000000    0.91330000000000
H         0.87260000000000   -2.23030000000000    1.54050000000000
B         0.50670000000000    0.41560000000000   -0.81540000000000
O         0.19500000000000   -0.04700000000000   -2.09150000000000
C         0.00650000000000    1.10040000000000   -2.95430000000000
C         0.49020000000000    0.74740000000000   -4.35780000000000
H         1.51610000000000    0.37380000000000   -4.33700000000000
H         0.44730000000000    1.62240000000000   -5.01670000000000
H        -0.14740000000000   -0.03390000000000   -4.78430000000000
C        -1.50120000000000    1.39560000000000   -2.96670000000000
H        -1.75370000000000    2.21460000000000   -3.64850000000000
H        -2.03200000000000    0.49450000000000   -3.28930000000000
H        -1.85170000000000    1.65210000000000   -1.96220000000000
C         0.84230000000000    2.20670000000000   -2.22040000000000
O         0.75200000000000    1.78260000000000   -0.83690000000000
C         2.32930000000000    2.18620000000000   -2.59900000000000
H         2.74130000000000    1.18500000000000   -2.45750000000000
H         2.48870000000000    2.51300000000000   -3.63180000000000
H         2.87200000000000    2.86270000000000   -1.93200000000000
C         0.28440000000000    3.62290000000000   -2.33660000000000
H        -0.72650000000000    3.69040000000000   -1.92910000000000
H         0.92130000000000    4.31480000000000   -1.77610000000000
H         0.26430000000000    3.94810000000000   -3.38320000000000
B         1.56300000000000    0.60960000000000    1.84840000000000
O         2.92780000000000    0.55230000000000    2.15020000000000
C         3.36330000000000    1.88660000000000    2.50260000000000
C         4.53140000000000    1.78590000000000    3.47740000000000
H         4.27910000000000    1.16090000000000    4.33690000000000
H         5.39390000000000    1.33790000000000    2.97340000000000
H         4.82390000000000    2.77870000000000    3.83820000000000
C         3.79700000000000    2.56850000000000    1.19670000000000
H         4.20020000000000    3.57090000000000    1.37680000000000
H         4.56740000000000    1.95560000000000    0.72110000000000
H         2.95240000000000    2.63260000000000    0.50540000000000
C         2.05040000000000    2.50090000000000    3.09320000000000
O         1.03750000000000    1.81620000000000    2.31910000000000
C         1.89100000000000    4.00450000000000    2.88650000000000
H         1.87290000000000    4.25440000000000    1.82410000000000
H         0.94940000000000    4.34260000000000    3.33170000000000
H         2.71080000000000    4.55150000000000    3.36630000000000
C         1.82470000000000    2.13200000000000    4.56520000000000
H         1.92610000000000    1.05330000000000    4.71320000000000
H         2.52610000000000    2.65280000000000    5.22540000000000
H         0.80630000000000    2.41580000000000    4.84900000000000
B         2.27820000000000   -1.33090000000000    0.17410000000000
O         2.89460000000000   -2.57740000000000    0.38450000000000
C         4.26930000000000   -2.48200000000000   -0.07210000000000
C         5.10900000000000   -2.05380000000000    1.14010000000000
H         4.76350000000000   -1.08740000000000    1.51750000000000
H         4.98050000000000   -2.79470000000000    1.93590000000000
H         6.17420000000000   -1.99290000000000    0.89300000000000
C         4.71950000000000   -3.84660000000000   -0.58470000000000
H         4.75280000000000   -4.56130000000000    0.24420000000000
H         5.72330000000000   -3.78370000000000   -1.02010000000000
H         4.03500000000000   -4.23600000000000   -1.34170000000000
C         4.16440000000000   -1.36220000000000   -1.16300000000000
O         3.08520000000000   -0.55030000000000   -0.65400000000000
C         5.40720000000000   -0.48870000000000   -1.31550000000000
H         6.27320000000000   -1.09010000000000   -1.61530000000000
H         5.23300000000000    0.26930000000000   -2.08590000000000
H         5.64270000000000    0.02650000000000   -0.38240000000000
C         3.71800000000000   -1.89830000000000   -2.53110000000000
H         2.82530000000000   -2.52160000000000   -2.42740000000000
H         3.46090000000000   -1.05250000000000   -3.17550000000000
H         4.50570000000000   -2.48290000000000   -3.01790000000000
H        -3.38500000000000   -4.00130000000000   -2.59310000000000
H        -5.21400000000000    1.52080000000000    1.29960000000000
C         0.23590000000000   -1.68140000000000    2.96030000000000
C        -1.00087789677571   -2.08500874341979    3.47468478825770
C         1.30596218571581   -1.87879074249153    3.84838128591510
C        -1.17474119987635   -2.56306553020979    4.77452882921714
H        -1.87071538171748   -2.07535307271849    2.82797578579229
C         1.16023021988511   -2.25267100367550    5.17705275594714
Cl        2.95236803471624   -1.84229617705014    3.33928638524623
C        -2.47352400429270   -3.15385893752786    5.23564138464053
C        -0.09100799854094   -2.60077603371047    5.64735969434950
H         2.04279356430486   -2.34961546755012    5.79492617678392
H        -3.33053100839533   -2.66973373081142    4.76924708381078
H        -2.55818691280543   -3.07686415356866    6.31995821554819
H        -2.49161322328340   -4.21479389355584    4.97535991403146
H        -0.20251552356020   -2.96363174527762    6.66107710587014
99
 energy: -143.640113033975 gnorm: 0.047883432533 xtb: 6.4.0 (f63f532)
N        -0.96124020891836   -2.10124531711261   -0.25039298125536
C        -2.23920297324204   -1.69073797879147   -0.36334598539194
C        -3.13414588254935   -2.36262772375990   -1.20495844267971
C        -2.70389675342068   -3.46414513105440   -1.92090559546493
C        -1.38394868377614   -3.88296222617564   -1.78220300435840
C        -0.55363633965266   -3.16866240461080   -0.94028950484930
H         0.48033149939508   -3.44878501477527   -0.79126177188595
H        -1.00743941299250   -4.74286581375648   -2.31764066160934
H        -4.15474093564404   -2.02729052399450   -1.30881056299212
C        -2.61073900555591   -0.51306951581099    0.43620931536327
N        -1.61858563442061    0.06824630064685    1.14668188637864
C        -1.89721783139759    1.13845059425484    1.89488735749499
C        -3.16462934637167    1.68673930563449    1.98429546131670
C        -4.19579481855299    1.10237414639583    1.25773423898436
C        -3.91422077629505   -0.00415668356028    0.47722549594647
H        -4.70576387268949   -0.46796515291763   -0.09119160767496
H        -3.33952809051449    2.54978277928815    2.61130270312160
H        -1.05440615802580    1.55649756128691    2.42463899947089
Ir        0.42150000000000   -0.81650000000000    0.91330000000000
H         0.87260000000000   -2.23030000000000    1.54050000000000
B         0.49566321400186    0.42218974068503   -0.79072643942477
O         0.17608695929288   -0.03615540935413   -2.06252003309614
C         0.00957981623108    1.09609740044334   -2.94252118568451
C         0.48784537073546    0.74749073056440   -4.34808433358915
H         1.50709584779151    0.37128013439801   -4.32777199170212
H         0.44240561002864    1.62316545048878   -4.99627394116029
H        -0.15073161726685   -0.02857728565237   -4.76873683633231
C        -1.49481744899372    1.39814636933168   -2.96802647149147
H        -1.73379243176997    2.21124633159182   -3.65186001906843
H        -2.02492909829179    0.50111040087187   -3.28823544350299
H        -1.84147488875930    1.65303131717196   -1.96632973593152
C         0.83115018983858    2.20647805562589   -2.21177719707586
O         0.75587803863521    1.77899722206980   -0.83467623698424
C         2.31359294983932    2.19131711249931   -2.60021296164052
H         2.71912287274287    1.19249262713884   -2.45120747607578
H         2.46489339094726    2.51312830602379   -3.62990482271556
H         2.85618545839407    2.86597329955653   -1.93884684109276
C         0.27895928309300    3.62248264038996   -2.33832350606838
H        -0.72436664827581    3.69129351069906   -1.92595872720997
H         0.91844779381907    4.30649455824988   -1.78178705159965
H         0.26109088307090    3.93525869377153   -3.38248349424030
B         1.56134233626420    0.63252860252149    1.84353440155530
O         2.92464967699317    0.59240825083972    2.10863316537190
C         3.36259116147615    1.90442217192662    2.50260952728958
C         4.53110835492741    1.79374985855513    3.47475834055372
H         4.27757894442639    1.15983507798892    4.32084390981235
H         5.38558837539479    1.34798973470598    2.96706666972197
H         4.81710456374739    2.78088169959865    3.83700707868317
C         3.80068214833346    2.58865365388804    1.20483864129131
H         4.20397897684765    3.58284315611613    1.38934375139500
H         4.56358521914133    1.97276241863293    0.73057353725171
H         2.95239548338533    2.63936237372593    0.52327508713384
C         2.05058126035643    2.51190974728673    3.08860428194264
O         1.03512686382351    1.81914966049487    2.33553803497691
C         1.89152784708944    4.01326112872054    2.89071694190335
H         1.86635738289682    4.25657815650574    1.83221972973555
H         0.95413773049382    4.34092405560410    3.33821867536331
H         2.71335278382051    4.54739199860798    3.36678885047141
C         1.83257733471508    2.14081332116447    4.55999953476335
H         1.93769729526866    1.06497094204007    4.69669363096422
H         2.53393954666184    2.66087008059772    5.20980566072337
H         0.81787482458761    2.41627854921267    4.84714586413586
B         2.27820000000000   -1.33089999999996    0.17410000000000
O         2.90233625059420   -2.56343214938254    0.37852586478366
C         4.26815447399311   -2.48337196696585   -0.08693049105358
C         5.12787504979865   -2.06001822810807    1.10892740819502
H         4.78174119469173   -1.09742829567656    1.48256454291268
H         5.00293566058536   -2.79287284952000    1.90539768759378
H         6.18377843182672   -2.00141979902069    0.85165726016617
C         4.72078386601433   -3.84641926681880   -0.59440364686580
H         4.75073616378145   -4.54809717373099    0.23820771032372
H         5.71867155061616   -3.77499383464735   -1.02609842726902
H         4.03413507545488   -4.23485364967189   -1.34177780742230
C         4.16462964908065   -1.35739122667524   -1.16236029423168
O         3.07295042911822   -0.56151709014367   -0.66227685069715
C         5.40825265284716   -0.48956959758140   -1.31890977410665
H         6.26422064672676   -1.09567657243631   -1.61470956492382
H         5.23033796723102    0.26260975432767   -2.08636478608471
H         5.63677931064594    0.02340349737028   -0.38898407358780
C         3.72653247730551   -1.89695051913453   -2.52963828055060
H         2.83523694240123   -2.51356083394597   -2.42006278864602
H         3.46872935802957   -1.05564699993816   -3.17160237843999
H         4.51693296534020   -2.47407049073928   -3.00677783401461
H        -3.38329113537443   -3.98897369161767   -2.57879861464627
H        -5.19991481540421    1.50332203625742    1.29846074488310
C         0.23590000000000   -1.68140000000005    2.96030000000002
C        -1.00636013940812   -2.08074386228046    3.46896568284712
C         1.30009438071270   -1.87701380545622    3.85874613981649
C        -1.18831068486050   -2.55533848682898    4.76759715784308
H        -1.87215039553963   -2.06952059513570    2.81927256836323
C         1.14104296865050   -2.24916039904337    5.18457437283959
Cl        2.94968240682248   -1.83440331351692    3.35810129908282
C        -2.49161022857461   -3.14186319374296    5.22313454569970
C        -0.11084661042823   -2.59357067400728    5.64424829911550
H         2.01688584339463   -2.34547461223732    5.80821080753037
H        -3.34405245776404   -2.65840274175520    4.75395573141085
H        -2.58207823771323   -3.06386799568248    6.30490768593885
H        -2.51222402193841   -4.20228002549585    4.96514042426680
H        -0.22971509996756   -2.95277871146665    6.65597732697975
99
 energy: -143.643214806745 gnorm: 0.038621911294 xtb: 6.4.0 (f63f532)
N        -0.95275075033805   -2.09455200878818   -0.25676911533022
C        -2.22813221385169   -1.68491457840652   -0.36478976695027
C        -3.12844681479455   -2.35576211204798   -1.20045722348244
C        -2.70697539413590   -3.45442090601588   -1.91707884347548
C        -1.38757907359169   -3.87321555677720   -1.78280325243261
C        -0.55772378127407   -3.15942273128823   -0.94576430657240
H         0.47462901926983   -3.44421732505087   -0.80458385533502
H        -1.01682654077887   -4.73234076273849   -2.31649701243255
H        -4.14766692702685   -2.02193961204562   -1.29599907632879
C        -2.59616783889440   -0.51610137846321    0.43047281406457
N        -1.60707184619185    0.06168096187409    1.14065130956251
C        -1.89282984950443    1.12476904936398    1.88491414115370
C        -3.15604054209345    1.67261794427967    1.97854621337463
C        -4.18730777835653    1.08841705320104    1.25299990302304
C        -3.90089718928575   -0.01105793190333    0.47248277591915
H        -4.69008040536957   -0.47728840224924   -0.09223606018055
H        -3.33187084041232    2.53023439626806    2.60671172135727
H        -1.05609096264693    1.54830746418095    2.41630698556122
Ir        0.42150000000000   -0.81650000000000    0.91330000000001
H         0.87260000000000   -2.23030000000000    1.54050000000000
B         0.49454984908326    0.43195002674074   -0.76787096550888
O         0.15492557783309   -0.02665715406377   -2.03259395671375
C         0.00349379392287    1.09300458922545   -2.92240532719672
C         0.48545990976312    0.74102016220652   -4.32622110599096
H         1.50099836217768    0.36180490739873   -4.30826635710604
H         0.43878118605947    1.62040565875949   -4.96322820154329
H        -0.15696177621117   -0.02872348514679   -4.74532196833481
C        -1.49929371115889    1.40361458841271   -2.96597295431428
H        -1.72022573128514    2.21305444615332   -3.65464379409330
H        -2.02849460401876    0.50906552992786   -3.28705159430519
H        -1.84735589102892    1.66107142941511   -1.96792203197309
C         0.82141804482136    2.20574978049347   -2.19836399525317
O         0.75899659200097    1.78173296708767   -0.82656245404874
C         2.30090125501998    2.19707480301368   -2.59856390488826
H         2.70424892131215    1.20016857175314   -2.44338609651997
H         2.43797277979059    2.51226832655102   -3.62879940853996
H         2.84347879465614    2.87594383093737   -1.94549283702913
C         0.26653661809933    3.62029025454579   -2.33325375904827
H        -0.73226347929087    3.69455979947438   -1.91706241493366
H         0.91121576023306    4.30239025026948   -1.78599009232622
H         0.24924862717965    3.91654149581167   -3.37842953060641
B         1.56096543361053    0.64905914176900    1.84458470049703
O         2.92210082963084    0.62215449474583    2.07026029721595
C         3.35945872870123    1.91859147350229    2.49292568783497
C         4.52470567717786    1.79882698571204    3.46923611797211
H         4.27195469009663    1.15461336328257    4.30464440815836
H         5.37610641757801    1.36079460004465    2.95588308785255
H         4.80287281607770    2.78224645271790    3.83659789892197
C         3.80595487298852    2.62610056355317    1.21040770250777
H         4.20804348269105    3.61513457116052    1.40302271775768
H         4.56644952589278    2.01105894916225    0.73621367443901
H         2.95733261127641    2.67143513142907    0.53237520680606
C         2.05080155830525    2.52084817276241    3.08589319013565
O         1.03444755289827    1.82026605704007    2.35074756064962
C         1.88959987197194    4.02253504053887    2.89273075392280
H         1.85553025174438    4.26607942787550    1.83701186779489
H         0.95782084906603    4.34471137101911    3.34827371885879
H         2.71554515371010    4.54651572569657    3.36401338832125
C         1.84736649018805    2.15204370195439    4.56088242044373
H         1.95778064010076    1.07755230406362    4.68786099290478
H         2.55087023666745    2.67433967086524    5.20041668012653
H         0.83440523560275    2.41995455664423    4.85189825854049
B         2.27820000000000   -1.33089999999990    0.17410000000001
O         2.91086290097628   -2.54896166029083    0.38554688679958
C         4.26402662906361   -2.47984455297395   -0.09858653692560
C         5.14765398746987   -2.06360374677629    1.08202742585452
H         4.80920139085002   -1.10094617548998    1.45660419019729
H         5.03302474687163   -2.79276554273999    1.87976729295081
H         6.19397356604671   -2.01151781589829    0.79959817008389
C         4.71220563382363   -3.84349311457374   -0.61011324244911
H         4.74528529270985   -4.53599786951256    0.22590767581697
H         5.70542374183189   -3.76487873335877   -1.04162444976393
H         4.02396835903135   -4.23506325494393   -1.35035630712527
C         4.15803143555496   -1.35370289970274   -1.16845313234350
O         3.05893059525380   -0.57003157841025   -0.67310091572079
C         5.40192224250791   -0.48609955636426   -1.32278295161696
H         6.24969331374107   -1.09947048601774   -1.61326038251119
H         5.22488808126957    0.25989301124997   -2.09201031390715
H         5.62758258490553    0.02827506390006   -0.39595530726248
C         3.73196718534731   -1.89510048775849   -2.53898832487071
H         2.84276035238389   -2.50967132305738   -2.42605230832088
H         3.47627216146319   -1.05641969277560   -3.18126025702793
H         4.52859510874139   -2.46740486613758   -3.00303812452014
H        -3.38794982376373   -3.97957816417150   -2.56809935372104
H        -5.19020796149123    1.48395037024829    1.29854313874988
C         0.23590000000001   -1.68140000000012    2.96030000000006
C        -1.01368008585420   -2.07642374955032    3.45684122050039
C         1.29246316122487   -1.86997095665879    3.86883884324106
C        -1.21042632474516   -2.54369965134252    4.75474982803232
H        -1.87286456045887   -2.06304545486659    2.79953987620334
C         1.11677269187649   -2.24226489275265    5.19219037654816
Cl        2.94455523322700   -1.78533509777202    3.37327609831642
C        -2.52302413096184   -3.11968623470056    5.19990487005029
C        -0.14025836812579   -2.58275457254864    5.63884355645183
H         1.98358800537622   -2.33328852287567    5.82741294502904
H        -3.36737872814910   -2.63325256427537    4.72171477739404
H        -2.62356643492557   -3.03788934422584    6.27964699513635
H        -2.54831318945407   -4.18042123309312    4.94509084926762
H        -0.27181125774768   -2.93511486427854    6.65052077485150
99
 energy: -143.645225419219 gnorm: 0.037485090741 xtb: 6.4.0 (f63f532)
N        -0.94078695465559   -2.09190112831153   -0.26700160471770
C        -2.21684844407949   -1.68231111834720   -0.36840585527221
C        -3.12358477866929   -2.35299713943443   -1.19847473253585
C        -2.70945587039555   -3.45167958583331   -1.91691362788751
C        -1.38795731911602   -3.87057595000672   -1.79023857655480
C        -0.55348964814356   -3.15580285130676   -0.95887087445531
H         0.47863882168168   -3.44565491991179   -0.82442665307849
H        -1.02224310527344   -4.73036769443975   -2.32441327737795
H        -4.14259755065183   -2.01749190890552   -1.28609649204912
C        -2.58245537153882   -0.51839955964036    0.42622569397796
N        -1.59402929364160    0.05976486247708    1.13698486450797
C        -1.88458442779882    1.12055469044913    1.88039322339908
C        -3.14845610541152    1.66477590791006    1.97781199552467
C        -4.18048839904975    1.07798001898045    1.25243854275049
C        -3.88944246919654   -0.01702296690595    0.46972029049304
H        -4.67595803681263   -0.48554751209930   -0.09599296631326
H        -3.32629726238825    2.51842422262135    2.60892114174069
H        -1.05235718365399    1.54742278847399    2.41645278524862
Ir        0.42149999999999   -0.81650000000001    0.91330000000001
H         0.87260000000000   -2.23029999999999    1.54050000000000
B         0.48467764908142    0.44566458969021   -0.74668145403849
O         0.13066670796939   -0.01806238661312   -2.00540033166925
C        -0.00781361934615    1.09202014713557   -2.90191215704575
C         0.48036481932564    0.73136230451904   -4.30234617718284
H         1.49340066296898    0.34694464509794   -4.28059090111326
H         0.43896443672927    1.61213369817944   -4.93650101547994
H        -0.16565318226766   -0.03463415122657   -4.72159036285989
C        -1.50947134622390    1.41149376705474   -2.96244764083698
H        -1.71439178973041    2.21880835437658   -3.65730034285213
H        -2.03920877307792    0.51853370674693   -3.28552144147069
H        -1.86504406893569    1.67484320969812   -1.96905019236068
C         0.81065051644605    2.20781235862387   -2.18345807133060
O         0.76037327388484    1.79002910057843   -0.81385386123082
C         2.28786756795270    2.20345746511959   -2.59601175280475
H         2.69442052359654    1.20908301861466   -2.43482767379100
H         2.41220051711966    2.51062789659860   -3.62950710791131
H         2.83154299454000    2.89036582837662   -1.95296356968978
C         0.25249554483052    3.62152151790969   -2.32537671993044
H        -0.74340897536663    3.69951330241177   -1.90399866663089
H         0.90156876940303    4.30759830080942   -1.78907552071040
H         0.23001705171652    3.90391819343190   -3.37361669107733
B         1.56139777286884    0.66977167407043    1.83143052461097
O         2.92248187300780    0.65497498207810    2.02473509221957
C         3.35705043599135    1.93869563143115    2.47859740124718
C         4.52026152241183    1.80279386268031    3.45790028362975
H         4.26664904775974    1.14434652898626    4.28167964965582
H         5.37348399168005    1.37556112435237    2.93909425771805
H         4.79221069540131    2.78164914039321    3.84018600778926
C         3.81143595520033    2.67226008507470    1.21142457919335
H         4.20935030877997    3.65797413124798    1.42346573619233
H         4.57645093606075    2.06589410023364    0.73350650256429
H         2.96611707762863    2.72447894568881    0.53051641314747
C         2.04854055113702    2.53032781520869    3.08398960486026
O         1.02910244907239    1.82318178962434    2.36410155133055
C         1.88241530649099    4.03323725106675    2.89541015051780
H         1.83693156070505    4.28039025045666    1.84115021319929
H         0.95628060774802    4.35277256062596    3.36318663761975
H         2.71446637314877    4.55254645782443    3.35959976094894
C         1.86414054965360    2.16302637853048    4.56343775550797
H         1.98204225656059    1.08934696847300    4.68712912240707
H         2.57166401379061    2.69044708566640    5.19292827189672
H         0.85259819832478    2.42491419950150    4.86310292720184
B         2.27819999999999   -1.33089999999983    0.17410000000002
O         2.91926210566601   -2.53840877506273    0.39679410789666
C         4.26070050076808   -2.47595588045012   -0.10904932518472
C         5.16932346376374   -2.06575611282502    1.05655594427603
H         4.84359393566278   -1.10095001652196    1.43605043606089
H         5.06573573250652   -2.79369078101481    1.85625233122776
H         6.20881075100471   -2.02118846968295    0.74888408579839
C         4.69987065114368   -3.84198128991116   -0.62691239538684
H         4.73900425024892   -4.53216413406861    0.21007141773666
H         5.68909616858481   -3.76116963059095   -1.06534694913161
H         4.00598931775482   -4.23371236182601   -1.36117632418611
C         4.14886068015813   -1.35001657046812   -1.17838704943956
O         3.04310306329660   -0.57528629916422   -0.68902672553816
C         5.39147587030626   -0.47843986135339   -1.33023466176980
H         6.23810076423025   -1.09556571621657   -1.61378458622902
H         5.21682294436945    0.26235280584458   -2.10418357758414
H         5.61308463639781    0.04041022183070   -0.40543835553532
C         3.73511014277750   -1.89413211534567   -2.55273580762870
H         2.84722865134393   -2.51028481422825   -2.44399651728409
H         3.48363452383409   -1.05682665041075   -3.19770770883721
H         4.53891120404995   -2.46362497306441   -3.00584056671588
H        -3.39458680559208   -3.97650772383854   -2.56287582789430
H        -5.18458603921487    1.46832028097033    1.30125064986159
C         0.23590000000001   -1.68140000000021    2.96030000000010
C        -1.02178050282472   -2.07207135349848    3.43985803027051
C         1.28178043818767   -1.85727472040506    3.88290891342381
C        -1.23787661435324   -2.52923829085017    4.73774968152970
H        -1.87167038235547   -2.05979750254700    2.77041937093964
C         1.08699425896164   -2.23038896887195    5.20307546314050
Cl        2.93850058324437   -1.74599972411288    3.40022451501226
C        -2.56224695526084   -3.09025231955383    5.16926334861558
C        -0.17716365633055   -2.56868098189555    5.63333199199319
H         1.94379089682626   -2.31797202322259    5.85230414177552
H        -3.39527550083368   -2.59770010428038    4.67705484704197
H        -2.67685434073132   -3.00176718649639    6.24715215252218
H        -2.59475748282815   -4.15187844198995    4.91884826577935
H        -0.32405237470937   -2.91489830086078    6.64520499006716
99
 energy: -143.647278161800 gnorm: 0.036837877988 xtb: 6.4.0 (f63f532)
N        -0.92819042970627   -2.09497773810790   -0.27599395741210
C        -2.20550947798744   -1.68347505535627   -0.37265402025420
C        -3.11718097996190   -2.35331152756737   -1.19966057259978
C        -2.70893868875344   -3.45239948893760   -1.92065460812513
C        -1.38514713040291   -3.87134626238322   -1.80213645889219
C        -0.54525730231650   -3.15733094396782   -0.97410289478163
H         0.48843825301464   -3.44853425329650   -0.84965432342874
H        -1.02336015097412   -4.73119161584202   -2.33955344364466
H        -4.13645391481446   -2.01542133353943   -1.27997566967071
C        -2.56922421384708   -0.52133961186406    0.42273065752384
N        -1.58095847396055    0.05649280768679    1.13744748359065
C        -1.87508766821981    1.11747709169018    1.88168809441092
C        -3.14060347643741    1.65859886662242    1.97948157935155
C        -4.17267558266095    1.07036304742437    1.25222737706331
C        -3.87751069638661   -0.02070749973667    0.46590413290521
H        -4.66152975690728   -0.49101347354012   -0.10253496669108
H        -3.32048416191654    2.50989527702554    2.61343509819724
H        -1.04556542087305    1.54895744893229    2.41930406689445
Ir        0.42149999999999   -0.81650000000001    0.91330000000002
H         0.87260000000000   -2.23029999999999    1.54050000000000
B         0.47913335117088    0.46096549204473   -0.72725546589594
O         0.10206983189347   -0.00686575101114   -1.97812229104804
C        -0.02459352381977    1.09457379171967   -2.88044834472231
C         0.47184422365650    0.71876665019912   -4.27507361760355
H         1.48159695135343    0.32507200148109   -4.24213781957476
H         0.44322115799958    1.59657031300407   -4.91482046516022
H        -0.17803922981474   -0.04478354055538   -4.69393391654835
C        -1.52462807492970    1.42378299153620   -2.95842241971037
H        -1.71459120778455    2.22878053132884   -3.66063096717426
H        -2.05629072474310    0.53224874234643   -3.28330790824178
H        -1.89167899056745    1.69585501685842   -1.97103739871530
C         0.79857899850107    2.21398206104504   -2.16892865819164
O         0.76092388112329    1.80203824179245   -0.80000985153274
C         2.27361083255010    2.21317781624702   -2.59334771013567
H         2.68697079771037    1.22255506023491   -2.42388386541311
H         2.38644561548022    2.50909236306025   -3.63172567908933
H         2.81863493264697    2.91157857385117   -1.96302741417754
C         0.23513541497921    3.62625409946329   -2.31555391545294
H        -0.75734638978172    3.70631266133673   -1.88531955128677
H         0.88851503704317    4.31976634947011   -1.79289182130564
H         0.20129319070059    3.89739085936679   -3.36702109361514
B         1.56074270424279    0.68224465174370    1.82737650032327
O         2.92663838293677    0.68970057666924    1.97313280738163
C         3.35655191048534    1.96278623734966    2.45906387882964
C         4.51854910634389    1.80578121080829    3.43894126208194
H         4.26400113130585    1.12682381806657    4.24671457055500