      -----------------------------------------------------------      
     |                   =====================                   |     
     |                           x T B                           |     
     |                   =====================                   |     
     |                         S. Grimme                         |     
     |          Mulliken Center for Theoretical Chemistry        |     
     |                    University of Bonn                     |     
      -----------------------------------------------------------      

   * xtb version 6.4.1 (1a32961) compiled by 'knkr256@seskscpg007.prim.scp' on 2021-10-19

   xtb is free software: you can redistribute it and/or modify it under
   the terms of the GNU Lesser General Public License as published by
   the Free Software Foundation, either version 3 of the License, or
   (at your option) any later version.
   
   xtb is distributed in the hope that it will be useful,
   but WITHOUT ANY WARRANTY; without even the implied warranty of
   MERCHANTABILITY or FITNESS FOR A PARTICULAR PURPOSE.  See the
   GNU Lesser General Public License for more details.
   
   Cite this work as:
   * C. Bannwarth, E. Caldeweyher, S. Ehlert, A. Hansen, P. Pracht,
     J. Seibert, S. Spicher, S. Grimme, WIREs Comput. Mol. Sci., 2020, 11,
     e01493. DOI: 10.1002/wcms.1493
   
   for GFN2-xTB:
   * C. Bannwarth, S. Ehlert and S. Grimme., J. Chem. Theory Comput., 2019,
     15, 1652-1671. DOI: 10.1021/acs.jctc.8b01176
   for GFN1-xTB:
   * S. Grimme, C. Bannwarth, P. Shushkov, J. Chem. Theory Comput., 2017,
     13, 1989-2009. DOI: 10.1021/acs.jctc.7b00118
   for GFN0-xTB:
   * P. Pracht, E. Caldeweyher, S. Ehlert, S. Grimme, ChemRxiv, 2019, preprint.
     DOI: 10.26434/chemrxiv.8326202.v1
   for GFN-FF:
   * S. Spicher and S. Grimme, Angew. Chem. Int. Ed., 2020, 59, 15665-15673.
     DOI: 10.1002/anie.202004239
   
   for ALPB and GBSA implicit solvation:
   * S. Ehlert, M. Stahn, S. Spicher, S. Grimme, J. Chem. Theory Comput.,
     2021, 17, 4250-4261. DOI: 10.1021/acs.jctc.1c00471
   
   for DFT-D4:
   * E. Caldeweyher, C. Bannwarth and S. Grimme, J. Chem. Phys., 2017,
     147, 034112. DOI: 10.1063/1.4993215
   * E. Caldeweyher, S. Ehlert, A. Hansen, H. Neugebauer, S. Spicher,
     C. Bannwarth and S. Grimme, J. Chem. Phys., 2019, 150, 154122.
     DOI: 10.1063/1.5090222
   * E. Caldeweyher, J.-M. Mewes, S. Ehlert and S. Grimme, Phys. Chem. Chem. Phys.
     2020, 22, 8499-8512. DOI: 10.1039/D0CP00502A
   
   for sTDA-xTB:
   * S. Grimme and C. Bannwarth, J. Chem. Phys., 2016, 145, 054103.
     DOI: 10.1063/1.4959605
   
   in the mass-spec context:
   * V. Asgeirsson, C. Bauer and S. Grimme, Chem. Sci., 2017, 8, 4879.
     DOI: 10.1039/c7sc00601b
   * J. Koopman and S. Grimme, ACS Omega 2019, 4, 12, 15120-15133.
     DOI: 10.1021/acsomega.9b02011
   
   for metadynamics refer to:
   * S. Grimme, J. Chem. Theory Comput., 2019, 155, 2847-2862
     DOI: 10.1021/acs.jctc.9b00143
   
   for SPH calculations refer to:
   * S. Spicher and S. Grimme, J. Chem. Theory Comput., 2021, 17, 1701-1714
     DOI: 10.1021/acs.jctc.0c01306
   
   with help from (in alphabetical order)
   P. Atkinson, C. Bannwarth, F. Bohle, G. Brandenburg, E. Caldeweyher
   M. Checinski, S. Dohm, S. Ehlert, S. Ehrlich, I. Gerasimov, J. Koopman
   C. Lavigne, S. Lehtola, F. März, M. Müller, F. Musil, H. Neugebauer
   J. Pisarek, C. Plett, P. Pracht, J. Seibert, P. Shushkov, S. Spicher
   M. Stahn, M. Steiner, T. Strunk, J. Stückrath, T. Rose, and J. Unsleber
   
 * started run on 2022/01/14 at 13:41:38.705     

           -------------------------------------------------
          |                Calculation Setup                |
           -------------------------------------------------

          program call               : xtb xtbopt.xyz --sp --alpb thf -P 6
          hostname                   : seskscpg007.prim.scp
          coordinate file            : xtbopt.xyz
          omp threads                :                     6
          number of atoms            :                    93
          number of electrons        :                   246
          charge                     :                     0
          spin                       :                   0.0
          first test random number   :      0.92590532298291

   ID    Z sym.   atoms
    1    7 N      1, 11
    2    6 C      2-6, 10, 12-15, 23, 24, 28, 32, 34, 38, 44, 45, 49, 53, 55,
                  59, 65, 66, 70, 74, 76, 80, 86-88, 91
    3    1 H      7-9, 16-18, 20, 25-27, 29-31, 35-37, 39-41, 46-48, 50-52,
                  56-58, 60-62, 67-69, 71-73, 77-79, 81-85, 90, 92, 93
    4   77 Ir     19
    5    5 B      21, 42, 63
    6    8 O      22, 33, 43, 54, 64, 75, 89

molecular fragmentation (1/2 indicates fragments):
111111111111111111111111111111111111111111111111111111111111111111111111
111111111111122222222
# atoms in fragment 1/2:    85     8
 fragment masses (1/2) :      730.32       67.07
CMA distance (Bohr)    :   8.345
constraining FC (au)   :  0.0500

           -------------------------------------------------
          |                 G F N 2 - x T B                 |
           -------------------------------------------------

        Reference                      10.1021/acs.jctc.8b01176
      * Hamiltonian:
        H0-scaling (s, p, d)           1.850000    2.230000    2.230000
        zeta-weighting                 0.500000
      * Dispersion:
        s8                             2.700000
        a1                             0.520000
        a2                             5.000000
        s9                             5.000000
      * Repulsion:
        kExp                           1.500000    1.000000
        rExp                           1.000000
      * Coulomb:
        alpha                          2.000000
        third order                    shell-resolved
        anisotropic                    true
        a3                             3.000000
        a5                             4.000000
        cn-shift                       1.200000
        cn-exp                         4.000000
        max-rad                        5.000000

      * Solvation model:               ALPB
        Solvent                        thf
        Parameter file                 internal GFN2-xTB/ALPB
        Dielectric constant                7.6000E+00
        Reference state                gsolv [1 M gas/solution]
        Free energy shift                  5.3248E-03 Eh       3.3414E+00 kcal/mol
        Temperature                        2.9815E+02 K
        Density                            8.8300E-01 kg/L
        Solvent mass                       7.2106E+01 g/mol
        Interaction kernel             P16
        Born radius scaling (c1)           1.7311E+00
        Born radii integrator          GBOBC
        Born offset                        0.0000E+00 a0       0.0000E+00 AA
        H-bond correction              true
        Ion screening                  false
        Surface tension                    1.0000E-05 Eh       1.5569E+01 dyn/cm
        Grid points                               230 per atom
q/qsh data taken from xtbrestart
CAMM data taken from xtbrestart

          ...................................................
          :                      SETUP                      :
          :.................................................:
          :  # basis functions                 234          :
          :  # atomic orbitals                 233          :
          :  # shells                          139          :
          :  # electrons                       246          :
          :  max. iterations                   250          :
          :  Hamiltonian                  GFN2-xTB          :
          :  restarted?                       true          :
          :  GBSA solvation                   true          :
          :  PC potential                    false          :
          :  electronic temp.          300.0000000     K    :
          :  accuracy                    1.0000000          :
          :  -> integral cutoff          0.2500000E+02      :
          :  -> integral neglect         0.1000000E-07      :
          :  -> SCF convergence          0.1000000E-05 Eh   :
          :  -> wf. convergence          0.1000000E-03 e    :
          :  Broyden damping             0.4000000          :
          ...................................................

 iter      E             dE          RMSdq      gap      omega  full diag
   1   -136.8703503 -0.136870E+03  0.181E-05    0.88       0.0  T
   2   -136.8703503  0.153989E-09  0.456E-05    0.88     227.5  T
   3   -136.8703503 -0.179313E-09  0.587E-06    0.88    1767.7  T

   *** convergence criteria satisfied after 3 iterations ***

         #    Occupation            Energy/Eh            Energy/eV
      -------------------------------------------------------------
         1        2.0000           -0.7200401             -19.5933
       ...           ...                  ...                  ...
       117        2.0000           -0.3741034             -10.1799
       118        2.0000           -0.3479929              -9.4694
       119        2.0000           -0.3301940              -8.9850
       120        2.0000           -0.3214263              -8.7465
       121        2.0000           -0.3201152              -8.7108
       122        2.0000           -0.3105728              -8.4511
       123        2.0000           -0.3082984              -8.3892 (HOMO)
       124                         -0.2758040              -7.5050 (LUMO)
       125                         -0.2476203              -6.7381
       126                         -0.2452624              -6.6739
       127                         -0.2046858              -5.5698
       128                         -0.2002920              -5.4502
       ...                                ...                  ...
       233                          3.7412538             101.8047
      -------------------------------------------------------------
                  HL-Gap            0.0324945 Eh            0.8842 eV
             Fermi-level           -0.2920097 Eh           -7.9460 eV

 SCC (total)                   0 d,  0 h,  0 min,  0.076 sec
 SCC setup                      ...        0 min,  0.003 sec (  4.052%)
 Dispersion                     ...        0 min,  0.002 sec (  3.055%)
 classical contributions        ...        0 min,  0.000 sec (  0.194%)
 integral evaluation            ...        0 min,  0.009 sec ( 11.330%)
 iterations                     ...        0 min,  0.032 sec ( 42.430%)
 molecular gradient             ...        0 min,  0.029 sec ( 37.911%)
 printout                       ...        0 min,  0.001 sec (  0.925%)

         :::::::::::::::::::::::::::::::::::::::::::::::::::::
         ::                     SUMMARY                     ::
         :::::::::::::::::::::::::::::::::::::::::::::::::::::
         :: total energy            -135.189471823107 Eh    ::
         :: total w/o Gsasa/hb      -135.152635365369 Eh    ::
         :: gradient norm              0.036960878992 Eh/a0 ::
         :: HOMO-LUMO gap              0.884219598998 eV    ::
         ::.................................................::
         :: SCC energy              -136.870350252913 Eh    ::
         :: -> isotropic ES            0.242426799985 Eh    ::
         :: -> anisotropic ES          0.012919651697 Eh    ::
         :: -> anisotropic XC          0.040276244996 Eh    ::
         :: -> dispersion             -0.126730132500 Eh    ::
         :: -> Gsolv                  -0.046513514370 Eh    ::
         ::    -> Gelec               -0.009677056632 Eh    ::
         ::    -> Gsasa               -0.039744982334 Eh    ::
         ::    -> Ghb                 -0.002416290848 Eh    ::
         ::    -> Gshift               0.005324815444 Eh    ::
         :: repulsion energy           1.673412621075 Eh    ::
         :: add. restraining           0.000000000000 Eh    ::
         :: total charge               0.000000000004 e     ::
         :::::::::::::::::::::::::::::::::::::::::::::::::::::

           -------------------------------------------------
          |                Property Printout                |
           -------------------------------------------------

    * Orbital Energies and Occupations

         #    Occupation            Energy/Eh            Energy/eV
      -------------------------------------------------------------
         1        2.0000           -0.7200401             -19.5933
       ...           ...                  ...                  ...
       111        2.0000           -0.4018290             -10.9343
       112        2.0000           -0.3928897             -10.6911
       113        2.0000           -0.3878775             -10.5547
       114        2.0000           -0.3854189             -10.4878
       115        2.0000           -0.3820837             -10.3970
       116        2.0000           -0.3812197             -10.3735
       117        2.0000           -0.3741034             -10.1799
       118        2.0000           -0.3479929              -9.4694
       119        2.0000           -0.3301940              -8.9850
       120        2.0000           -0.3214263              -8.7465
       121        2.0000           -0.3201152              -8.7108
       122        2.0000           -0.3105728              -8.4511
       123        2.0000           -0.3082984              -8.3892 (HOMO)
       124                         -0.2758040              -7.5050 (LUMO)
       125                         -0.2476203              -6.7381
       126                         -0.2452624              -6.6739
       127                         -0.2046858              -5.5698
       128                         -0.2002920              -5.4502
       129                         -0.1862114              -5.0671
       130                         -0.1526155              -4.1529
       131                         -0.1347936              -3.6679
       132                         -0.1259351              -3.4269
       133                         -0.1230665              -3.3488
       134                         -0.1109208              -3.0183
       ...                                ...                  ...
       233                          3.7412538             101.8047
      -------------------------------------------------------------
                  HL-Gap            0.0324945 Eh            0.8842 eV
             Fermi-level           -0.2920097 Eh           -7.9460 eV

     #   Z          covCN         q      C6AA      α(0)
     1   7 N        2.560    -0.120    23.647     7.222
     2   6 C        2.955     0.075    26.323     8.415
     3   6 C        2.918    -0.043    29.072     8.842
     4   6 C        2.923    -0.023    28.574     8.766
     5   6 C        2.915    -0.044    29.088     8.844
     6   6 C        2.892     0.047    26.940     8.510
     7   1 H        0.926     0.054     2.265     2.354
     8   1 H        0.926     0.056     2.243     2.342
     9   1 H        0.926     0.047     2.356     2.400
    10   6 C        2.954     0.071    26.417     8.430
    11   7 N        2.562    -0.126    23.769     7.241
    12   6 C        2.890     0.041    27.071     8.530
    13   6 C        2.915    -0.045    29.117     8.848
    14   6 C        2.922    -0.025    28.632     8.775
    15   6 C        2.918    -0.046    29.133     8.851
    16   1 H        0.926     0.046     2.368     2.406
    17   1 H        0.926     0.052     2.297     2.370
    18   1 H        0.926     0.078     2.003     2.213
    19  77 Ir       5.958    -0.169   389.740    36.508
    20   1 H        0.977     0.105     1.731     2.056
    21   5 B        2.632     0.403    16.010     6.759
    22   8 O        1.638    -0.408    21.006     6.187
    23   6 C        3.835     0.130    18.454     6.112
    24   6 C        3.755    -0.121    22.878     6.820
    25   1 H        0.925     0.053     2.282     2.362
    26   1 H        0.925     0.045     2.387     2.416
    27   1 H        0.925     0.051     2.305     2.374
    28   6 C        3.754    -0.110    22.651     6.786
    29   1 H        0.925     0.047     2.353     2.399
    30   1 H        0.925     0.042     2.423     2.434
    31   1 H        0.925     0.028     2.617     2.530
    32   6 C        3.841     0.130    18.440     6.109
    33   8 O        1.637    -0.403    20.912     6.173
    34   6 C        3.755    -0.121    22.878     6.820
    35   1 H        0.925     0.052     2.292     2.368
    36   1 H        0.925     0.045     2.377     2.411
    37   1 H        0.925     0.049     2.333     2.388
    38   6 C        3.754    -0.120    22.856     6.817
    39   1 H        0.925     0.047     2.359     2.402
    40   1 H        0.925     0.053     2.283     2.363
    41   1 H        0.925     0.045     2.383     2.414
    42   5 B        2.625     0.402    16.056     6.774
    43   8 O        1.637    -0.384    20.542     6.118
    44   6 C        3.838     0.128    18.474     6.115
    45   6 C        3.754    -0.126    22.974     6.835
    46   1 H        0.925     0.055     2.262     2.352
    47   1 H        0.925     0.056     2.247     2.344
    48   1 H        0.925     0.049     2.327     2.386
    49   6 C        3.755    -0.122    22.890     6.822
    50   1 H        0.925     0.048     2.340     2.392
    51   1 H        0.925     0.046     2.367     2.406
    52   1 H        0.925     0.052     2.292     2.368
    53   6 C        3.833     0.127    18.491     6.118
    54   8 O        1.637    -0.381    20.498     6.111
    55   6 C        3.755    -0.125    22.946     6.830
    56   1 H        0.925     0.055     2.264     2.353
    57   1 H        0.925     0.054     2.267     2.355
    58   1 H        0.925     0.048     2.345     2.395
    59   6 C        3.755    -0.124    22.934     6.829
    60   1 H        0.925     0.044     2.400     2.423
    61   1 H        0.925     0.053     2.288     2.365
    62   1 H        0.925     0.051     2.311     2.377
    63   5 B        2.625     0.402    16.055     6.774
    64   8 O        1.637    -0.379    20.450     6.104
    65   6 C        3.832     0.125    18.531     6.125
    66   6 C        3.755    -0.131    23.071     6.849
    67   1 H        0.925     0.059     2.214     2.327
    68   1 H        0.925     0.054     2.268     2.355
    69   1 H        0.925     0.050     2.317     2.380
    70   6 C        3.755    -0.129    23.040     6.844
    71   1 H        0.925     0.061     2.191     2.315
    72   1 H        0.925     0.050     2.315     2.379
    73   1 H        0.925     0.052     2.293     2.368
    74   6 C        3.829     0.127    18.496     6.119
    75   8 O        1.637    -0.379    20.461     6.106
    76   6 C        3.755    -0.124    22.936     6.829
    77   1 H        0.925     0.051     2.311     2.378
    78   1 H        0.925     0.054     2.273     2.358
    79   1 H        0.925     0.055     2.259     2.351
    80   6 C        3.755    -0.122    22.886     6.821
    81   1 H        0.925     0.041     2.441     2.443
    82   1 H        0.925     0.048     2.345     2.395
    83   1 H        0.925     0.055     2.264     2.353
    84   1 H        0.926     0.053     2.282     2.363
    85   1 H        0.926     0.050     2.324     2.384
    86   6 C        2.912    -0.056    29.390     8.890
    87   6 C        3.076     0.060    26.585     8.454
    88   6 C        3.028    -0.067    29.641     8.930
    89   8 O        1.726    -0.217    17.595     5.664
    90   1 H        0.926     0.029     2.596     2.519
    91   6 C        3.046     0.058    26.647     8.466
    92   1 H        0.927     0.041     2.439     2.442
    93   1 H        0.926     0.050     2.316     2.380

 Mol. C6AA /au·bohr⁶  :      91396.218222
 Mol. C8AA /au·bohr⁸  :    2447552.401023
 Mol. α(0) /au        :        467.897380


Wiberg/Mayer (AO) data.
largest (>0.10) Wiberg bond orders for each atom

 ---------------------------------------------------------------------------
     #   Z sym  total        # sym  WBO       # sym  WBO       # sym  WBO
 ---------------------------------------------------------------------------
     1   7 N    3.408 --     6 C    1.386     2 C    1.309    19 Ir   0.453
     2   6 C    3.979 --     3 C    1.348     1 N    1.309    10 C    1.093
     3   6 C    3.988 --     4 C    1.484     2 C    1.348     9 H    0.962
                             6 C    0.106
     4   6 C    3.985 --     3 C    1.484     5 C    1.380    84 H    0.969
     5   6 C    3.979 --     6 C    1.462     4 C    1.380     8 H    0.968
     6   6 C    3.978 --     5 C    1.462     1 N    1.386     7 H    0.957
                             3 C    0.106
     7   1 H    0.997 --     6 C    0.957
     8   1 H    0.996 --     5 C    0.968
     9   1 H    0.997 --     3 C    0.962
    10   6 C    3.979 --    15 C    1.353    11 N    1.302     2 C    1.093
    11   7 N    3.409 --    12 C    1.385    10 C    1.302    19 Ir   0.442
    12   6 C    3.972 --    13 C    1.458    11 N    1.385    18 H    0.948
                            15 C    0.105
    13   6 C    3.982 --    12 C    1.458    14 C    1.384    17 H    0.969
    14   6 C    3.982 --    15 C    1.478    13 C    1.384    85 H    0.969
    15   6 C    3.989 --    14 C    1.478    10 C    1.353    16 H    0.962
                            12 C    0.105
    16   1 H    0.997 --    15 C    0.962
    17   1 H    0.997 --    13 C    0.969
    18   1 H    0.994 --    12 C    0.948
    19  77 Ir   5.213 --    42 B    0.867    63 B    0.867    21 B    0.735
                            86 C    0.585    20 H    0.553     1 N    0.453
                            11 N    0.442
    20   1 H    0.987 --    19 Ir   0.553    86 C    0.338
    21   5 B    3.277 --    33 O    1.111    22 O    1.092    19 Ir   0.735
    22   8 O    2.192 --    21 B    1.092    23 C    0.943
    23   6 C    3.943 --    24 C    0.996    28 C    0.990    22 O    0.943
                            32 C    0.941
    24   6 C    3.994 --    23 C    0.996    26 H    0.984    27 H    0.983
                            25 H    0.983
    25   1 H    0.997 --    24 C    0.983
    26   1 H    0.997 --    24 C    0.984
    27   1 H    0.997 --    24 C    0.983
    28   6 C    3.997 --    23 C    0.990    31 H    0.985    29 H    0.984
                            30 H    0.984
    29   1 H    0.997 --    28 C    0.984
    30   1 H    0.998 --    28 C    0.984
    31   1 H    0.999 --    28 C    0.985
    32   6 C    3.940 --    38 C    0.997    34 C    0.991    23 C    0.941
                            33 O    0.940
    33   8 O    2.201 --    21 B    1.111    32 C    0.940
    34   6 C    3.994 --    32 C    0.991    36 H    0.984    37 H    0.982
                            35 H    0.981
    35   1 H    0.997 --    34 C    0.981
    36   1 H    0.997 --    34 C    0.984
    37   1 H    0.997 --    34 C    0.982
    38   6 C    3.994 --    32 C    0.997    41 H    0.984    39 H    0.983
                            40 H    0.983
    39   1 H    0.998 --    38 C    0.983
    40   1 H    0.997 --    38 C    0.983
    41   1 H    0.997 --    38 C    0.984
    42   5 B    3.332 --    43 O    1.114    54 O    1.109    19 Ir   0.867
    43   8 O    2.224 --    42 B    1.114    44 C    0.937
    44   6 C    3.937 --    45 C    0.997    49 C    0.991    53 C    0.939
                            43 O    0.937
    45   6 C    3.993 --    44 C    0.997    48 H    0.983    46 H    0.982
                            47 H    0.982
    46   1 H    0.997 --    45 C    0.982
    47   1 H    0.997 --    45 C    0.982
    48   1 H    0.996 --    45 C    0.983
    49   6 C    3.994 --    44 C    0.991    50 H    0.983    51 H    0.982
                            52 H    0.980
    50   1 H    0.997 --    49 C    0.983
    51   1 H    0.998 --    49 C    0.982
    52   1 H    0.997 --    49 C    0.980
    53   6 C    3.938 --    55 C    0.996    59 C    0.991    44 C    0.939
                            54 O    0.935
    54   8 O    2.228 --    42 B    1.109    53 C    0.935
    55   6 C    3.993 --    53 C    0.996    58 H    0.983    57 H    0.983
                            56 H    0.982
    56   1 H    0.997 --    55 C    0.982
    57   1 H    0.997 --    55 C    0.983
    58   1 H    0.996 --    55 C    0.983
    59   6 C    3.994 --    53 C    0.991    61 H    0.983    62 H    0.983
                            60 H    0.983
    60   1 H    0.998 --    59 C    0.983
    61   1 H    0.996 --    59 C    0.983
    62   1 H    0.997 --    59 C    0.983
    63   5 B    3.361 --    75 O    1.119    64 O    1.107    19 Ir   0.867
    64   8 O    2.226 --    63 B    1.107    65 C    0.938
    65   6 C    3.938 --    70 C    0.997    66 C    0.991    74 C    0.938
                            64 O    0.938
    66   6 C    3.992 --    65 C    0.991    69 H    0.983    68 H    0.983
                            67 H    0.979
    67   1 H    0.997 --    66 C    0.979
    68   1 H    0.997 --    66 C    0.983
    69   1 H    0.996 --    66 C    0.983
    70   6 C    3.992 --    65 C    0.997    72 H    0.983    73 H    0.982
                            71 H    0.982
    71   1 H    0.996 --    70 C    0.982
    72   1 H    0.996 --    70 C    0.983
    73   1 H    0.997 --    70 C    0.982
    74   6 C    3.935 --    76 C    0.996    80 C    0.991    65 C    0.938
                            75 O    0.936
    75   8 O    2.235 --    63 B    1.119    74 C    0.936
    76   6 C    3.993 --    74 C    0.996    77 H    0.983    78 H    0.982
                            79 H    0.981
    77   1 H    0.996 --    76 C    0.983
    78   1 H    0.997 --    76 C    0.982
    79   1 H    0.997 --    76 C    0.981
    80   6 C    3.995 --    74 C    0.991    81 H    0.984    83 H    0.983
                            82 H    0.983
    81   1 H    0.998 --    80 C    0.984
    82   1 H    0.997 --    80 C    0.983
    83   1 H    0.996 --    80 C    0.983
    84   1 H    0.996 --     4 C    0.969
    85   1 H    0.996 --    14 C    0.969
    86   6 C    3.944 --    87 C    1.570    88 C    1.239    19 Ir   0.585
                            20 H    0.338
    87   6 C    3.895 --    86 C    1.570    89 O    1.096    90 H    0.966
                            91 C    0.147
    88   6 C    3.983 --    91 C    1.628    86 C    1.239    92 H    0.970
    89   8 O    2.405 --    91 C    1.119    87 C    1.096
    90   1 H    0.999 --    87 C    0.966
    91   6 C    3.901 --    88 C    1.628    89 O    1.119    93 H    0.966
                            87 C    0.147
    92   1 H    0.998 --    88 C    0.970
    93   1 H    0.996 --    91 C    0.966
 ---------------------------------------------------------------------------

Topologies differ in total number of bonds
Writing topology from bond orders to xtbtopo.mol

molecular dipole:
                 x           y           z       tot (Debye)
 q only:        0.410       0.406      -1.122
   full:       -0.823       0.637      -1.542       4.729
molecular quadrupole (traceless):
                xx          xy          yy          xz          yz          zz
 q only:       14.061      -0.424      -1.454       7.122      14.618     -12.608
  q+dip:       16.045       1.282      -3.075       6.566      18.495     -12.970
   full:       13.865       2.396      -1.908       4.918      15.707     -11.957


           -------------------------------------------------
          | TOTAL ENERGY             -135.189471823107 Eh   |
          | GRADIENT NORM               0.036960878992 Eh/α |
          | HOMO-LUMO GAP               0.884219598998 eV   |
           -------------------------------------------------

------------------------------------------------------------------------
 * finished run on 2022/01/14 at 13:41:38.858     
------------------------------------------------------------------------
 total:
 * wall-time:     0 d,  0 h,  0 min,  0.153 sec
 *  cpu-time:     0 d,  0 h,  0 min,  0.848 sec
 * ratio c/w:     5.543 speedup
 SCF:
 * wall-time:     0 d,  0 h,  0 min,  0.078 sec
 *  cpu-time:     0 d,  0 h,  0 min,  0.464 sec
 * ratio c/w:     5.961 speedup

