97
 energy: -144.986353298777 gnorm: 0.078901592863 xtb: 6.4.1 (1a32961)
N        -0.96510000000000   -2.11530000000000   -0.24090000000000
C        -2.24700000000000   -1.69840000000000   -0.36220000000000
C        -3.14040000000000   -2.36820000000000   -1.21200000000000
C        -2.70220000000000   -3.47560000000000   -1.93050000000000
C        -1.37780000000000   -3.89880000000000   -1.78760000000000
C        -0.54290000000000   -3.18670000000000   -0.93510000000000
H         0.49810000000000   -3.45630000000000   -0.78940000000000
H        -0.99570000000000   -4.76030000000000   -2.32770000000000
H        -4.16500000000000   -2.02890000000000   -1.31830000000000
C        -2.62130000000000   -0.50950000000000    0.44100000000000
N        -1.62600000000000    0.07330000000000    1.16020000000000
C        -1.89680000000000    1.15240000000000    1.91690000000000
C        -3.17230000000000    1.70330000000000    1.99650000000000
C        -4.20510000000000    1.11740000000000    1.26270000000000
C        -3.92610000000000    0.00250000000000    0.47820000000000
H        -4.71960000000000   -0.46420000000000   -0.09520000000000
H        -3.34630000000000    2.57510000000000    2.62070000000000
H        -1.04450000000000    1.57420000000000    2.43690000000000
Ir        0.42150000000000   -0.81650000000000    0.91330000000000
H         0.87260000000000   -2.23030000000000    1.54050000000000
B         0.50670000000000    0.41560000000000   -0.81540000000000
O         0.19500000000000   -0.04700000000000   -2.09150000000000
C         0.00650000000000    1.10040000000000   -2.95430000000000
C         0.49020000000000    0.74740000000000   -4.35780000000000
H         1.51610000000000    0.37380000000000   -4.33700000000000
H         0.44730000000000    1.62240000000000   -5.01670000000000
H        -0.14740000000000   -0.03390000000000   -4.78430000000000
C        -1.50120000000000    1.39560000000000   -2.96670000000000
H        -1.75370000000000    2.21460000000000   -3.64850000000000
H        -2.03200000000000    0.49450000000000   -3.28930000000000
H        -1.85170000000000    1.65210000000000   -1.96220000000000
C         0.84230000000000    2.20670000000000   -2.22040000000000
O         0.75200000000000    1.78260000000000   -0.83690000000000
C         2.32930000000000    2.18620000000000   -2.59900000000000
H         2.74130000000000    1.18500000000000   -2.45750000000000
H         2.48870000000000    2.51300000000000   -3.63180000000000
H         2.87200000000000    2.86270000000000   -1.93200000000000
C         0.28440000000000    3.62290000000000   -2.33660000000000
H        -0.72650000000000    3.69040000000000   -1.92910000000000
H         0.92130000000000    4.31480000000000   -1.77610000000000
H         0.26430000000000    3.94810000000000   -3.38320000000000
B         1.56300000000000    0.60960000000000    1.84840000000000
O         2.92780000000000    0.55230000000000    2.15020000000000
C         3.36330000000000    1.88660000000000    2.50260000000000
C         4.53140000000000    1.78590000000000    3.47740000000000
H         4.27910000000000    1.16090000000000    4.33690000000000
H         5.39390000000000    1.33790000000000    2.97340000000000
H         4.82390000000000    2.77870000000000    3.83820000000000
C         3.79700000000000    2.56850000000000    1.19670000000000
H         4.20020000000000    3.57090000000000    1.37680000000000
H         4.56740000000000    1.95560000000000    0.72110000000000
H         2.95240000000000    2.63260000000000    0.50540000000000
C         2.05040000000000    2.50090000000000    3.09320000000000
O         1.03750000000000    1.81620000000000    2.31910000000000
C         1.89100000000000    4.00450000000000    2.88650000000000
H         1.87290000000000    4.25440000000000    1.82410000000000
H         0.94940000000000    4.34260000000000    3.33170000000000
H         2.71080000000000    4.55150000000000    3.36630000000000
C         1.82470000000000    2.13200000000000    4.56520000000000
H         1.92610000000000    1.05330000000000    4.71320000000000
H         2.52610000000000    2.65280000000000    5.22540000000000
H         0.80630000000000    2.41580000000000    4.84900000000000
B         2.27820000000000   -1.33090000000000    0.17410000000000
O         2.89460000000000   -2.57740000000000    0.38450000000000
C         4.26930000000000   -2.48200000000000   -0.07210000000000
C         5.10900000000000   -2.05380000000000    1.14010000000000
H         4.76350000000000   -1.08740000000000    1.51750000000000
H         4.98050000000000   -2.79470000000000    1.93590000000000
H         6.17420000000000   -1.99290000000000    0.89300000000000
C         4.71950000000000   -3.84660000000000   -0.58470000000000
H         4.75280000000000   -4.56130000000000    0.24420000000000
H         5.72330000000000   -3.78370000000000   -1.02010000000000
H         4.03500000000000   -4.23600000000000   -1.34170000000000
C         4.16440000000000   -1.36220000000000   -1.16300000000000
O         3.08520000000000   -0.55030000000000   -0.65400000000000
C         5.40720000000000   -0.48870000000000   -1.31550000000000
H         6.27320000000000   -1.09010000000000   -1.61530000000000
H         5.23300000000000    0.26930000000000   -2.08590000000000
H         5.64270000000000    0.02650000000000   -0.38240000000000
C         3.71800000000000   -1.89830000000000   -2.53110000000000
H         2.82530000000000   -2.52160000000000   -2.42740000000000
H         3.46090000000000   -1.05250000000000   -3.17550000000000
H         4.50570000000000   -2.48290000000000   -3.01790000000000
H        -3.38500000000000   -4.00130000000000   -2.59310000000000
H        -5.21400000000000    1.52080000000000    1.29960000000000
C         0.23590000000000   -1.68140000000000    2.96030000000000
C        -0.98467704560038   -2.12635261592089    3.47362340202349
C         1.33569688923233   -1.83467870829253    3.83685415435914
C        -1.09977469919940   -2.63669824551914    4.76154856250644
H        -1.87533725133487   -2.10226031479817    2.85954773725405
C         2.71792651208638   -1.62204547957608    3.57352951740266
C         1.21728465684032   -2.35320197068232    5.13137268545949
C        -0.01009404557392   -2.77047087548781    5.61150102338941
Cl       -2.63990529917426   -3.18553472569644    5.32143226511111
N         3.86343429806282   -1.61357579920106    3.68433199106667
H         2.11035660201119   -2.46882805220220    5.73494076791317
H        -0.09816459562656   -3.21141617599301    6.59473880453174
97
 energy: -144.994374540705 gnorm: 0.049748573892 xtb: 6.4.1 (1a32961)
N        -0.96232353995658   -2.10318613241125   -0.25054829206498
C        -2.23935221866143   -1.69181395960912   -0.36363805282887
C        -3.13432398038066   -2.36361235053325   -1.20470874214465
C        -2.70382838876292   -3.46558185421141   -1.92057677337820
C        -1.38437899414200   -3.88434991683968   -1.78226833336033
C        -0.55376692330986   -3.17009330081831   -0.94010182542636
H         0.48043660862638   -3.44923733320103   -0.79131806608199
H        -1.00779036556875   -4.74406138299847   -2.31768266497211
H        -4.15487789108388   -2.02849884966548   -1.30826516461014
C        -2.61118852603476   -0.51306141726910    0.43661173254544
N        -1.61970399565414    0.06961046344520    1.14615505775608
C        -1.89790463727313    1.13909611723252    1.89542108910389
C        -3.16592737415989    1.68644024629994    1.98556842011467
C        -4.19637192868981    1.10168858554357    1.25925429975752
C        -3.91465747164226   -0.00521893860361    0.47863225341672
H        -4.70611110147626   -0.46936049383567   -0.08933054041153
H        -3.34081959599261    2.54963746688187    2.61214689737430
H        -1.05439658688773    1.55841985531148    2.42334379449711
Ir        0.42150000000000   -0.81650000000000    0.91330000000000
H         0.87260000000000   -2.23030000000000    1.54050000000000
B         0.49708675857792    0.41939852550149   -0.79339122912136
O         0.17525373761265   -0.03786855509824   -2.06406715341630
C         0.00873995681903    1.09549147308364   -2.94322330046224
C         0.48706909347535    0.74704239521243   -4.34861929580261
H         1.50629902825041    0.37107189747610   -4.32798832443289
H         0.44146008217936    1.62273340489828   -4.99656924153628
H        -0.15143709585239   -0.02900889968092   -4.76917353031197
C        -1.49567838188173    1.39728801215745   -2.96774503179328
H        -1.73482094839566    2.21037124860111   -3.65135081638989
H        -2.02564741274511    0.50033253234506   -3.28809059796595
H        -1.84183754820489    1.65211589575056   -1.96592246440392
C         0.83070863937437    2.20537177477433   -2.21165552914688
O         0.75532420878854    1.77575879212282   -0.83467329168999
C         2.31306606969302    2.19072471585506   -2.59995165821451
H         2.71893741362483    1.19212302300157   -2.45108081627993
H         2.46385153688220    2.51305593999006   -3.62946844878035
H         2.85525206675552    2.86544238465141   -1.93853305773894
C         0.27801423514785    3.62132074140987   -2.33741277064484
H        -0.72530770253945    3.69014272871884   -1.92521342947123
H         0.91748537872670    4.30532807913603   -1.78104882660684
H         0.26009322512626    3.93439454457298   -3.38140400041238
B         1.55975029519763    0.63097963760492    1.84280883241586
O         2.91936116827926    0.58116289722455    2.11183314533039
C         3.36126345639683    1.89548317572077    2.50354626845216
C         4.53064449112800    1.79188243011142    3.47439210577928
H         4.28028545742468    1.15734986980042    4.32020665605800
H         5.38366837745230    1.34509613023532    2.96676096898400
H         4.81526628244928    2.78072624692492    3.83419141872317
C         3.79815774013927    2.58245642294360    1.20612431459755
H         4.20143042892522    3.57661088189907    1.39195860026622
H         4.56144694194572    1.96789656980492    0.73169969704736
H         2.95045849521878    2.63513811534783    0.52410522880986
C         2.05099761419881    2.50900599688539    3.08837881114074
O         1.03377611514294    1.81602322065808    2.33698922769350
C         1.89136855800741    4.01063918760582    2.88994406033321
H         1.86612562975773    4.25379596510851    1.83155303782069
H         0.95437904428920    4.33930512850024    3.33767396601536
H         2.71315711212213    4.54494924568022    3.36559407801050
C         1.83254090231223    2.14072958016603    4.56025402977894
H         1.94129644241160    1.06522082719291    4.69785777695341
H         2.53409874845792    2.66151604896618    5.20893228714321
H         0.81777150424638    2.41654035516709    4.84768549379169
B         2.27820000000000   -1.33090000000000    0.17410000000000
O         2.90168825361309   -2.56058321090168    0.39001928783304
C         4.26593236889638   -2.48355278804553   -0.08605757064222
C         5.12641832698025   -2.05924480826487    1.10580138830771
H         4.77670450370864   -1.10104322141021    1.48472280998201
H         4.99846166893461   -2.78794536637246    1.90421467404372
H         6.18258987533654   -2.00161969799588    0.84973326717979
C         4.71803952215962   -3.84654222542860   -0.59464173509045
H         4.75066454716310   -4.54768408202288    0.23814386009909
H         5.71566729156002   -3.77423241695136   -1.02671677954973
H         4.03193782720938   -4.23632431419574   -1.34186151702592
C         4.16296591282066   -1.35870898239057   -1.16278779820031
O         3.06941439248728   -0.56347406541534   -0.66485448944053
C         5.40604278111569   -0.48986279220825   -1.31891917055091
H         6.26234448956150   -1.09536681135265   -1.61460452247798
H         5.22844844905691    0.26240723863777   -2.08637954749602
H         5.63394545175176    0.02198130048263   -0.38839357417174
C         3.72549138312127   -1.89736452119762   -2.53061993546887
H         2.83456416199014   -2.51434609843147   -2.42140010393823
H         3.46803429611547   -1.05587961290652   -3.17236735718254
H         4.51641062581497   -2.47393178362262   -3.00729369218775
H        -3.38330208983448   -3.99043345378808   -2.57814365977567
H        -5.20044026872689    1.50235739313371    1.29987085957706
C         0.23590000000003   -1.68139999999999    2.96030000000003
C        -0.99183110304116   -2.12101275919370    3.46272886176424
C         1.32793204975349   -1.83211026509190    3.85049004580817
C        -1.11971254723990   -2.62721255461677    4.74956356178311
H        -1.87612900172144   -2.09628917754840    2.84246209439590
C         2.70705544489626   -1.61866464448718    3.59633415683189
C         1.19098191501304   -2.34771640584153    5.14373353807711
C        -0.03909637071659   -2.76058517790767    5.60865559702361
Cl       -2.66889214273165   -3.17414686074689    5.29740530055045
N         3.85044011972329   -1.61090757577569    3.71130398503130
H         2.07511678989109   -2.46301374973147    5.75601098385260
H        -0.13857790539128   -3.19857672453222    6.58924414729236
97
 energy: -144.997648375419 gnorm: 0.040176171647 xtb: 6.4.1 (1a32961)
N        -0.95587762317146   -2.09897455160405   -0.25679352746472
C        -2.22956542669055   -1.68788118563178   -0.36489579092067
C        -3.12985681723662   -2.35827114780046   -1.19982748588840
C        -2.70776386511215   -3.45786812758490   -1.91623292709146
C        -1.38921144745669   -3.87652966220409   -1.78286629153115
C        -0.55884090318536   -3.16264345473556   -0.94538122574167
H         0.47377238882958   -3.44591316098319   -0.80411677920924
H        -1.01824750114849   -4.73539394674005   -2.31649383139182
H        -4.14898368564963   -2.02486960498964   -1.29528096525247
C        -2.59811538695295   -0.51689461555449    0.43158757933325
N        -1.61004506273343    0.06390414631965    1.13923423930201
C        -1.89475739327748    1.12626619041633    1.88459245761673
C        -3.15938028031676    1.67177814648816    1.98054130817247
C        -4.18958384793260    1.08600342159300    1.25643237234233
C        -3.90293295831773   -0.01421055630751    0.47567768355066
H        -4.69229220487820   -0.48143079761097   -0.08750808703617
H        -3.33537580174875    2.52931079173136    2.60853803667632
H        -1.05680479351246    1.55200836803965    2.41270118152165
Ir        0.42150000000000   -0.81650000000000    0.91330000000000
H         0.87260000000000   -2.23030000000000    1.54050000000001
B         0.49360116223780    0.42659242554189   -0.77267026918202
O         0.15280092353942   -0.03057577918720   -2.03571256386665
C         0.00133356723835    1.09108358096936   -2.92422886149196
C         0.48353519381561    0.73984028185837   -4.32781319060424
H         1.49911734891955    0.36122558745656   -4.30926298562967
H         0.43642133337485    1.61926773571664   -4.96444826126452
H        -0.15855759333040   -0.03001757410898   -4.74683935580611
C        -1.50145613156223    1.40127743923882   -2.96594522561320
H        -1.72303292773362    2.21081766552478   -3.65400877930540
H        -2.03042482596723    0.50679239965035   -3.28704037880224
H        -1.84829701316647    1.65836658334451   -1.96749731312489
C         0.81980528881889    2.20277370795341   -2.19838912071556
O         0.75748417790225    1.77493435858966   -0.82673220183895
C         2.29915516395966    2.19527731097514   -2.59818206092257
H         2.70322576779403    1.19878815095461   -2.44334358405489
H         2.43544208481701    2.51151848514601   -3.62806066759027
H         2.84088668972527    2.87428813609077   -1.94485242154571
C         0.26419570405705    3.61726291650172   -2.33104187527205
H        -0.73452027748586    3.69125076840121   -1.91487768992820
H         0.90893189822947    4.29915496264585   -1.78385933464645
H         0.24660731602854    3.91425373276162   -3.37589093710229
B         1.55793543663109    0.64261099160114    1.85009132121813
O         2.91308550860342    0.60261702959377    2.08052606526365
C         3.35663887252194    1.90368815563004    2.49642731988062
C         4.52428151787933    1.79313379446930    3.46881834202310
H         4.27839707678701    1.14863188969083    4.30514962574457
H         5.37358759291409    1.35418553364347    2.95477933053792
H         4.79904179499293    2.77975758336046    3.83060760056792
C         3.80019597248472    2.60930334918586    1.21128364023192
H         4.20214215246637    3.59814452483528    1.40596686327715
H         4.56112086005145    1.99572384636937    0.73720330726071
H         2.95166895096919    2.65719655794045    0.53354137886938
C         2.05016646017287    2.51377759087588    3.08734306956423
O         1.03116066149787    1.81246701792021    2.35445427347584
C         1.89001877701588    4.01542313471668    2.89019540189724
H         1.85563539720287    4.25774471723078    1.83437674671868
H         0.95883775715834    4.33914292314532    3.34591646478311
H         2.71592356556218    4.53995285758375    3.36060154459359
C         1.84719422672736    2.15079101246875    4.56353957820189
H         1.96471271027448    1.07720541574272    4.69358360044560
H         2.55067003197315    2.67638149081185    5.20011534287136
H         0.83400329347722    2.41825433182826    4.85468509066660
B         2.27819999999999   -1.33089999999999    0.17410000000000
O         2.90900885507868   -2.54402402465466    0.40186723822316
C         4.26119243828539   -2.47918271416012   -0.09563510151860
C         5.14477856711379   -2.06195812674033    1.07989363855127
H         4.80031502686555   -1.10553304642122    1.46202813080062
H         5.02543967836294   -2.78514549751063    1.88091908619293
H         6.19131626676603   -2.01059906060955    0.79975652491749
C         4.70615299706811   -3.84331106972713   -0.60927510901098
H         4.74337602042757   -4.53543910930697    0.22666694307617
H         5.69869602884817   -3.76307092884181   -1.04195038028052
H         4.01845368107102   -4.23644095691342   -1.34928672866280
C         4.15349081297238   -1.35683073865482   -1.16963801368405
O         3.05064893975349   -0.57414161744306   -0.67878861483540
C         5.39617491742532   -0.48710558692432   -1.32214812410809
H         6.24479148078108   -1.09907056248635   -1.61262138016781
H         5.21916179830801    0.25901364839601   -2.09121748389041
H         5.62029492730001    0.02528499025482   -0.39415080026006
C         3.72982034131795   -1.89755758947597   -2.54132657922317
H         2.84116428161434   -2.51282551539593   -2.42989098029886
H         3.47473507795870   -1.05839791397708   -3.18300026950101
H         4.52762976400751   -2.46851392804270   -3.00465229263769
H        -3.38901666380814   -3.98323806618817   -2.56646360796596
H        -5.19265287289429    1.48046004714017    1.30234018240715
C         0.23590000000008   -1.68139999999997    2.96030000000007
C        -1.00336732806860   -2.11306333261148    3.44286773012678
C         1.31534267338082   -1.82821716958726    3.86717248008906
C        -1.15404603703324   -2.61128580569690    4.72879663469224
H        -1.87692878732852   -2.08782218119726    2.80866172820980
C         2.69120543618949   -1.61199847850122    3.61522981647665
C         1.15129876797906   -2.33668336834519    5.16115425861225
C        -0.08755830650802   -2.74253826306877    5.60528149308505
Cl       -2.71834504012388   -3.15131656430256    5.25469005421762
N         3.83564394145999   -1.58979237050465    3.72741334397299
H         2.02246735162994   -2.44905754231905    5.79065988293521
H        -0.20735471293252   -3.17431254689946    6.58536654634579
97
 energy: -144.999749292845 gnorm: 0.039353820202 xtb: 6.4.1 (1a32961)
N        -0.94634698102788   -2.09761249672563   -0.26745567296526
C        -2.22048923593429   -1.68678370391884   -0.36866336548422
C        -3.12707094497602   -2.35689964846638   -1.19787985266577
C        -2.71185786543355   -3.45679083034889   -1.91586633862950
C        -1.39140449000303   -3.87543061157137   -1.79025443635520
C        -0.55634846962954   -3.16016222248277   -0.95852273183821
H         0.47600896053478   -3.44814960097877   -0.82356295566207
H        -1.02531272745284   -4.73493856390676   -2.32434801835086
H        -4.14598384640187   -2.02208547470810   -1.28600837208831
C        -2.58695581461037   -0.52040185364574    0.42764408157295
N        -1.59957191357590    0.06218661902370    1.13424362936730
C        -1.88872605185251    1.12237103477848    1.87849511010993
C        -3.15469926725363    1.66273482474957    1.97998599427807
C        -4.18568794715427    1.07288273646354    1.25770211689011
C        -3.89433661115266   -0.02295691624302    0.47456578984992
H        -4.68145574822668   -0.49324785311789   -0.08832174232217
H        -3.33283032805595    2.51630766199981    2.61093745511615
H        -1.05476856307034    1.55269550706783    2.40938848687327
Ir        0.42150000000000   -0.81649999999999    0.91329999999999
H         0.87260000000000   -2.23029999999999    1.54050000000001
B         0.48393109376507    0.43740115706693   -0.75297621713449
O         0.12753787942178   -0.02426606081133   -2.00952323138697
C        -0.01120001801541    1.08850109990455   -2.90443019965193
C         0.47698883952672    0.72945276216530   -4.30487137400225
H         1.49022785754312    0.34611603867058   -4.28265657275206
H         0.43471660180160    1.61040700215364   -4.93846574845443
H        -0.16834773957734   -0.03682685914792   -4.72427868590007
C        -1.51287634637279    1.40734531752143   -2.96259182124668
H        -1.71899599658595    2.21494242136891   -3.65648168126035
H        -2.04237118145883    0.51446999854946   -3.28573760399769
H        -1.86681712777333    1.66986515693409   -1.96855985504039
C         0.80760198498845    2.20298824957202   -2.18356512304615
O         0.75805083900499    1.78013259024672   -0.81419966208323
C         2.28457542156590    2.20054993806736   -2.59566108702133
H         2.69213937909473    1.20669202027189   -2.43509517596585
H         2.40802935749732    2.50925926458025   -3.62865410913261
H         2.82698367386035    2.88753881230429   -1.95195516066001
C         0.24817895152528    3.61648692458275   -2.32172536057428
H        -0.74747891574588    3.69345312392888   -1.89988820823266
H         0.89729199188124    4.30200354447705   -1.78508772231422
H         0.22489399612473    3.90054391864581   -3.36938613073450
B         1.55899190486316    0.65621094830436    1.84296128280931
O         2.91187103091079    0.62432383779730    2.04590978495607
C         3.35384217071957    1.91532322687000    2.48626987137505
C         4.52097259471751    1.79264105881548    3.45946885323464
H         4.27732922408953    1.13454949585107    4.28556662142127
H         5.37155036654618    1.36491968675602    2.93869751815925
H         4.78812373891491    2.77600767801911    3.83345310443396
C         3.80225255124185    2.64181034451162    1.21291090191172
H         4.20040750418007    3.62778176769507    1.42392356447488
H         4.56656529786069    2.03543168755651    0.73557377582422
H         2.95566950690255    2.69474522123930    0.53392106192591
C         2.04833661658331    2.51771187993103    3.08792096770902
O         1.02570931390837    1.80853362915971    2.37167043815333
C         1.88324733520945    4.02008439466332    2.89181454181699
H         1.83732444158512    4.26342491565160    1.83691653114846
H         0.95774632498020    4.34245959090988    3.35901435501264
H         2.71538990392146    4.54093542196284    3.35377147596119
C         1.86456764247930    2.15992973287665    4.56927970164856
H         1.99233421984770    1.08788731328838    4.69905939502206
H         2.57098586157017    2.69418762240753    5.19411395260404
H         0.85228517329536    2.41989494550531    4.86831363877507
B         2.27819999999998   -1.33089999999999    0.17410000000001
O         2.91606122720583   -2.53208637951529    0.41610153194552
C         4.25688559660447   -2.47535173171320   -0.10419940699106
C         5.16515865627782   -2.06330237590536    1.05570268159699
H         4.83135446994586   -1.10563121253794    1.44408030754135
H         5.05739739517640   -2.78585304883982    1.85847235519399
H         6.20482870582115   -2.01817626680015    0.75073847260595
C         4.69104750927127   -3.84255462079122   -0.62344825350546
H         4.73478061185189   -4.53225378538736    0.21347438879809
H         5.67904197464804   -3.76058608179308   -1.06450707849476
H         3.99652318533694   -4.23519552408374   -1.35664525110567
C         4.14279027602986   -1.35497433490624   -1.17965899556429
O         3.03166290213385   -0.58157886367315   -0.69725618931116
C         5.38302211592944   -0.47974187715084   -1.32905932212960
H         6.23107939067916   -1.09465327319896   -1.61261923778801
H         5.20779495835387    0.26145427614782   -2.10240820632494
H         5.60177272530510    0.03630233637368   -0.40241066157152
C         3.73295519041249   -1.89968717492265   -2.55511553610808
H         2.84567404619952   -2.51681906038394   -2.44911765877879
H         3.48217538310485   -1.06182222233124   -3.19942227745789
H         4.53846786245288   -2.46724494176843   -3.00721603395017
H        -3.39732999956673   -3.98196200462753   -2.56088257180627
H        -5.19032709047339    1.46110499754364    1.30774266266916
C         0.23590000000014   -1.68139999999994    2.96030000000012
C        -1.01678188297557   -2.10398161125048    3.41752776605879
C         1.29805809981589   -1.82395384809687    3.88700155331430
C        -1.19634709575645   -2.59071557089797    4.70313762873517
H        -1.87616195527790   -2.08000454767048    2.76373108502574
C         2.67207443154102   -1.59590748171906    3.64361419763684
C         1.10302283176311   -2.32056639735764    5.18236679570653
C        -0.14765293714890   -2.71771418932237    5.60252598737486
Cl       -2.77827606295630   -3.11961849097685    5.20046981547434
N         3.81778442322943   -1.57657019305530    3.73944031524014
H         1.95926636491308   -2.42808557358535    5.83359871251669
H        -0.29270154308036   -3.13955008728204    6.58406321124832
97
 energy: -145.001724016512 gnorm: 0.040691612328 xtb: 6.4.1 (1a32961)
N        -0.93632317215987   -2.10074616930989   -0.27757266101030
C        -2.21177892312130   -1.68859705137093   -0.37346515106782
C        -3.12353550110656   -2.35760807846943   -1.19950130515453
C        -2.71416954275469   -3.45803460803248   -1.91994558933950
C        -1.39145127901659   -3.87682757178610   -1.80250630079582
C        -0.55078337977192   -3.16180312043510   -0.97447350207470
H         0.48297673744764   -3.45151673763013   -0.84912479704678
H        -1.02953681739856   -4.73665202028896   -2.33951149637061
H        -4.14268704048106   -2.02046580853446   -1.28079693996899
C        -2.57669384293007   -0.52464989674929    0.42392865045797
N        -1.58935068651786    0.05928556754913    1.13250821185552
C        -1.88226039766576    1.11967958011101    1.87694219939322
C        -3.15073083817069    1.65465844693261    1.98144420574434
C        -4.18214683398215    1.06100157362285    1.25967891422888
C        -3.88619936800343   -0.03053406195816    0.47254337029043
H        -4.67116869846940   -0.50392050654511   -0.09148311685816
H        -3.33121148467436    2.50577490976518    2.61519419541603
H        -1.05081336766372    1.55620148218515    2.40784260671427
Ir        0.42150000000000   -0.81649999999999    0.91329999999999
H         0.87260000000000   -2.23029999999999    1.54050000000002
B         0.47543231734016    0.45075785454582   -0.73331099345569
O         0.09651413417687   -0.01510119367615   -1.98202888326199
C        -0.03021284510356    1.08908433533444   -2.88264466428438
C         0.46644032737210    0.71613067727128   -4.27760864441795
H         1.47671928891197    0.32435493929475   -4.24517399715005
H         0.43579141612573    1.59493569973721   -4.91557898477008
H        -0.18244300541545   -0.04764935367203   -4.69723189250346
C        -1.53042834705298    1.41724560918064   -2.95856441345623
H        -1.72141520457335    2.22285501270290   -3.65949995328913
H        -2.06148827659140    0.52579534397092   -3.28408993554805
H        -1.89590296012787    1.68772050608565   -1.97036937435882
C         0.79274958000538    2.20705888668722   -2.16819177001097
O         0.75721339670673    1.78962425248145   -0.79985053566766
C         2.26731569123345    2.20925749213983   -2.59295852365470
H         2.68187881227166    1.21914850402165   -2.42467974327854
H         2.37849544688335    2.50728917073063   -3.63072286564226
H         2.81077300381337    2.90767696733546   -1.96165835324505
C         0.22718840109684    3.61890782989098   -2.30961416079602
H        -0.76483402395468    3.69698880311284   -1.87829582380684
H         0.88065241150959    4.31147675127179   -1.78622233592304
H         0.19194807419563    3.89224364423880   -3.36033031096506
B         1.55903156281422    0.66214074235412    1.84453795665893
O         2.91499060178759    0.64849219116869    2.00643113950640
C         3.35261180285710    1.93102307660192    2.47223586174260
C         4.52035832207478    1.79157874435333    3.44435254981393
H         4.27915902685678    1.11347682091470    4.25599392578170
H         5.37498257485286    1.38084833109573    2.91487392335401
H         4.78032232713743    2.76895036618875    3.84114000238214
C         3.80423925356565    2.68628916749568    1.21459248107852
H         4.19576646065815    3.67052310846017    1.44883296901214
H         4.57610096098368    2.09387878507359    0.73034324835642
H         2.96164322737139    2.75012564027770    0.53114580377523
C         2.04772021553916    2.52168498728954    3.09179513060587
O         1.02049316268964    1.80072399510300    2.39598723613884