      -----------------------------------------------------------      
     |                   =====================                   |     
     |                           x T B                           |     
     |                   =====================                   |     
     |                         S. Grimme                         |     
     |          Mulliken Center for Theoretical Chemistry        |     
     |                    University of Bonn                     |     
      -----------------------------------------------------------      

   * xtb version 6.4.0 (f63f532) compiled by 'knkr256@seskscpg008.prim.scp' on 2021-04-09

   xtb is free software: you can redistribute it and/or modify it under
   the terms of the GNU Lesser General Public License as published by
   the Free Software Foundation, either version 3 of the License, or
   (at your option) any later version.
   
   xtb is distributed in the hope that it will be useful,
   but WITHOUT ANY WARRANTY; without even the implied warranty of
   MERCHANTABILITY or FITNESS FOR A PARTICULAR PURPOSE.  See the
   GNU Lesser General Public License for more details.
   
   Cite this work as:
   * C. Bannwarth, E. Caldeweyher, S. Ehlert, A. Hansen, P. Pracht,
     J. Seibert, S. Spicher, S. Grimme, WIREs Comput. Mol. Sci., 2020, 11,
     e01493. DOI: 10.1002/wcms.1493
   
   for GFN2-xTB:
   * C. Bannwarth, S. Ehlert and S. Grimme., J. Chem. Theory Comput., 2019,
     15, 1652-1671. DOI: 10.1021/acs.jctc.8b01176
   for GFN1-xTB:
   * S. Grimme, C. Bannwarth, P. Shushkov, J. Chem. Theory Comput., 2017,
     13, 1989-2009. DOI: 10.1021/acs.jctc.7b00118
   for GFN0-xTB:
   * P. Pracht, E. Caldeweyher, S. Ehlert, S. Grimme, ChemRxiv, 2019, preprint.
     DOI: 10.26434/chemrxiv.8326202.v1
   for GFN-FF:
   * S. Spicher and S. Grimme, Angew. Chem. Int. Ed., 2020, 59, 15665-15673.
     DOI: 10.1002/anie.202004239
   
   for DFT-D4:
   * E. Caldeweyher, C. Bannwarth and S. Grimme, J. Chem. Phys., 2017,
     147, 034112. DOI: 10.1063/1.4993215
   * E. Caldeweyher, S. Ehlert, A. Hansen, H. Neugebauer, S. Spicher,
     C. Bannwarth and S. Grimme, J. Chem. Phys., 2019, 150, 154122.
     DOI: 10.1063/1.5090222
   * E. Caldeweyher, J.-M. Mewes, S. Ehlert and S. Grimme, Phys. Chem. Chem. Phys.
     2020, 22, 8499-8512. DOI: 10.1039/D0CP00502A
   
   for sTDA-xTB:
   * S. Grimme and C. Bannwarth, J. Chem. Phys., 2016, 145, 054103.
     DOI: 10.1063/1.4959605
   
   in the mass-spec context:
   * V. Asgeirsson, C. Bauer and S. Grimme, Chem. Sci., 2017, 8, 4879.
     DOI: 10.1039/c7sc00601b
   * J. Koopman and S. Grimme, ACS Omega 2019, 4, 12, 15120-15133.
     DOI: 10.1021/acsomega.9b02011
   
   for metadynamics refer to:
   * S. Grimme, J. Chem. Theory Comput., 2019, 155, 2847-2862
     DOI: 10.1021/acs.jctc.9b00143
   
   for SPH calculations refer to:
   * S. Spicher and S. Grimme, J. Chem. Theory Comput., 2021, 17, 1701-1714
     DOI: 10.1021/acs.jctc.0c01306
   
   with help from (in alphabetical order)
   P. Atkinson, C. Bannwarth, F. Bohle, G. Brandenburg, E. Caldeweyher
   M. Checinski, S. Dohm, S. Ehlert, S. Ehrlich, I. Gerasimov, J. Koopman
   C. Lavinge, S. Lehtola, F. März, M. Müller, F. Musil, H. Neugebauer
   J. Pisarek, P. Pracht, J. Seibert, P. Shushkov, S. Spicher, M. Stahn
   T. Strunk, J. Stückrath, T. Rose, and J. Unsleber
   
 * started run on 2021/10/08 at 07:17:59.133     

           -------------------------------------------------
          |                Calculation Setup                |
           -------------------------------------------------

          program call               : xtb xtbopt.xyz --sp --alpb thf -P 6
          hostname                   : seskscpg010.prim.scp
          coordinate file            : xtbopt.xyz
          omp threads                :                     6
          number of atoms            :                   106
          number of electrons        :                   280
          charge                     :                     0
          spin                       :                   0.0
          first test random number   :      0.63677699124722

   ID    Z sym.   atoms
    1    7 N      1, 11, 87, 98
    2    6 C      2-6, 10, 12-15, 23, 24, 28, 32, 34, 38, 44, 45, 49, 53, 55,
                  59, 65, 66, 70, 74, 76, 80, 86, 88-91, 93, 99-101, 103
    3    1 H      7-9, 16-18, 20, 25-27, 29-31, 35-37, 39-41, 46-48, 50-52,
                  56-58, 60-62, 67-69, 71-73, 77-79, 81-85, 92, 94-97, 102,
                  104-106
    4   77 Ir     19
    5    5 B      21, 42, 63
    6    8 O      22, 33, 43, 54, 64, 75

molecular fragmentation (1/2 indicates fragments):
111111111111111111111111111111111111111111111111111111111111111111111111
1111111111111222222222222222222222
# atoms in fragment 1/2:    85    21
 fragment masses (1/2) :      730.32      157.19
CMA distance (Bohr)    :   9.028
constraining FC (au)   :  0.0500

           -------------------------------------------------
          |                 G F N 2 - x T B                 |
           -------------------------------------------------

        Reference                      10.1021/acs.jctc.8b01176
      * Hamiltonian:
        H0-scaling (s, p, d)           1.850000    2.230000    2.230000
        zeta-weighting                 0.500000
      * Dispersion:
        s8                             2.700000
        a1                             0.520000
        a2                             5.000000
        s9                             5.000000
      * Repulsion:
        kExp                           1.500000    1.000000
        rExp                           1.000000
      * Coulomb:
        alpha                          2.000000
        third order                    shell-resolved
        anisotropic                    true
        a3                             3.000000
        a5                             4.000000
        cn-shift                       1.200000
        cn-exp                         4.000000
        max-rad                        5.000000

      * Solvation model:               ALPB
        Solvent                        thf
        Parameter file                 internal GFN2-xTB/ALPB
        Dielectric constant                7.6000E+00
        Reference state                gsolv [1 M gas/solution]
        Free energy shift                  5.3248E-03 Eh       3.3414E+00 kcal/mol
        Temperature                        2.9815E+02 K
        Density                            8.8300E-01 kg/L
        Solvent mass                       7.2106E+01 g/mol
        Interaction kernel             P16
        Born radius scaling (c1)           1.7311E+00
        Born radii integrator          GBOBC
        Born offset                        0.0000E+00 a0       0.0000E+00 AA
        H-bond correction              true
        Ion screening                  false
        Surface tension                    1.0000E-05 Eh       1.5569E+01 dyn/cm
        Grid points                               230 per atom
q/qsh data taken from xtbrestart
CAMM data taken from xtbrestart

          ...................................................
          :                      SETUP                      :
          :.................................................:
          :  # basis functions                 268          :
          :  # atomic orbitals                 267          :
          :  # shells                          159          :
          :  # electrons                       280          :
          :  max. iterations                   250          :
          :  Hamiltonian                  GFN2-xTB          :
          :  restarted?                       true          :
          :  GBSA solvation                   true          :
          :  PC potential                    false          :
          :  electronic temp.          300.0000000     K    :
          :  accuracy                    1.0000000          :
          :  -> integral cutoff          0.2500000E+02      :
          :  -> integral neglect         0.1000000E-07      :
          :  -> SCF convergence          0.1000000E-05 Eh   :
          :  -> wf. convergence          0.1000000E-03 e    :
          :  Broyden damping             0.4000000          :
          ...................................................

 iter      E             dE          RMSdq      gap      omega  full diag
   1   -154.9224199 -0.154922E+03  0.369E-05    0.87       0.0  T
   2   -154.9224199  0.553797E-09  0.818E-05    0.87     118.7  T
   3   -154.9224199 -0.641421E-09  0.143E-05    0.87     681.2  T

   *** convergence criteria satisfied after 3 iterations ***

         #    Occupation            Energy/Eh            Energy/eV
      -------------------------------------------------------------
         1        2.0000           -0.6742638             -18.3477
       ...           ...                  ...                  ...
       134        2.0000           -0.3581770              -9.7465
       135        2.0000           -0.3459998              -9.4151
       136        2.0000           -0.3254460              -8.8558
       137        2.0000           -0.3197180              -8.7000
       138        2.0000           -0.3162040              -8.6043
       139        2.0000           -0.3090742              -8.4103
       140        2.0000           -0.3071313              -8.3575 (HOMO)
       141                         -0.2750036              -7.4832 (LUMO)
       142                         -0.2491414              -6.7795
       143                         -0.2470870              -6.7236
       144                         -0.2447743              -6.6606
       145                         -0.2322185              -6.3190
       ...                                ...                  ...
       267                          3.9126243             106.4679
      -------------------------------------------------------------
                  HL-Gap            0.0321278 Eh            0.8742 eV
             Fermi-level           -0.2910096 Eh           -7.9188 eV

 SCC (total)                   0 d,  0 h,  0 min,  0.114 sec
 SCC setup                      ...        0 min,  0.002 sec (  1.959%)
 Dispersion                     ...        0 min,  0.002 sec (  2.124%)
 classical contributions        ...        0 min,  0.000 sec (  0.145%)
 integral evaluation            ...        0 min,  0.031 sec ( 26.826%)
 iterations                     ...        0 min,  0.034 sec ( 30.090%)
 molecular gradient             ...        0 min,  0.044 sec ( 38.225%)
 printout                       ...        0 min,  0.001 sec (  0.572%)

         :::::::::::::::::::::::::::::::::::::::::::::::::::::
         ::                     SUMMARY                     ::
         :::::::::::::::::::::::::::::::::::::::::::::::::::::
         :: total energy            -152.896467194754 Eh    ::
         :: total w/o Gsasa/hb      -152.856398550529 Eh    ::
         :: gradient norm              0.032682653076 Eh/a0 ::
         :: HOMO-LUMO gap              0.874240655383 eV    ::
         ::.................................................::
         :: SCC energy              -154.922419918808 Eh    ::
         :: -> isotropic ES            0.246949646908 Eh    ::
         :: -> anisotropic ES          0.015018460551 Eh    ::
         :: -> anisotropic XC          0.060383905804 Eh    ::
         :: -> dispersion             -0.156281784953 Eh    ::
         :: -> Gsolv                  -0.050193926276 Eh    ::
         ::    -> Gelec               -0.010125282052 Eh    ::
         ::    -> Gsasa               -0.042823639173 Eh    ::
         ::    -> Ghb                 -0.002569820496 Eh    ::
         ::    -> Gshift               0.005324815444 Eh    ::
         :: repulsion energy           2.015717525454 Eh    ::
         :: add. restraining           0.000000000000 Eh    ::
         :: total charge               0.000000000014 e     ::
         :::::::::::::::::::::::::::::::::::::::::::::::::::::

           -------------------------------------------------
          |                Property Printout                |
           -------------------------------------------------

    * Orbital Energies and Occupations

         #    Occupation            Energy/Eh            Energy/eV
      -------------------------------------------------------------
         1        2.0000           -0.6742638             -18.3477
       ...           ...                  ...                  ...
       128        2.0000           -0.3876958             -10.5497
       129        2.0000           -0.3864853             -10.5168
       130        2.0000           -0.3825236             -10.4090
       131        2.0000           -0.3815987             -10.3838
       132        2.0000           -0.3728754             -10.1465
       133        2.0000           -0.3628809              -9.8745
       134        2.0000           -0.3581770              -9.7465
       135        2.0000           -0.3459998              -9.4151
       136        2.0000           -0.3254460              -8.8558
       137        2.0000           -0.3197180              -8.7000
       138        2.0000           -0.3162040              -8.6043
       139        2.0000           -0.3090742              -8.4103
       140        2.0000           -0.3071313              -8.3575 (HOMO)
       141                         -0.2750036              -7.4832 (LUMO)
       142                         -0.2491414              -6.7795
       143                         -0.2470870              -6.7236
       144                         -0.2447743              -6.6606
       145                         -0.2322185              -6.3190
       146                         -0.2031650              -5.5284
       147                         -0.1956036              -5.3226
       148                         -0.1584067              -4.3105
       149                         -0.1507724              -4.1027
       150                         -0.1265231              -3.4429
       151                         -0.1239514              -3.3729
       ...                                ...                  ...
       267                          3.9126243             106.4679
      -------------------------------------------------------------
                  HL-Gap            0.0321278 Eh            0.8742 eV
             Fermi-level           -0.2910096 Eh           -7.9188 eV

     #   Z          covCN         q      C6AA      α(0)
     1   7 N        2.537    -0.131    23.882     7.258
     2   6 C        2.953     0.076    26.295     8.411
     3   6 C        2.918    -0.042    29.037     8.837
     4   6 C        2.923    -0.022    28.555     8.763
     5   6 C        2.915    -0.045    29.110     8.847
     6   6 C        2.891     0.047    26.941     8.510
     7   1 H        0.926     0.053     2.284     2.363
     8   1 H        0.926     0.056     2.252     2.347
     9   1 H        0.926     0.048     2.349     2.397
    10   6 C        2.954     0.071    26.406     8.428
    11   7 N        2.548    -0.132    23.897     7.260
    12   6 C        2.890     0.040    27.110     8.537
    13   6 C        2.916    -0.046    29.151     8.854
    14   6 C        2.922    -0.028    28.692     8.784
    15   6 C        2.919    -0.044    29.096     8.846
    16   1 H        0.926     0.044     2.391     2.418
    17   1 H        0.926     0.047     2.359     2.402
    18   1 H        0.926     0.078     1.996     2.209
    19  77 Ir       5.916    -0.162   388.990    36.472
    20   1 H        0.977     0.096     1.815     2.105
    21   5 B        2.628     0.407    15.987     6.757
    22   8 O        1.638    -0.408    21.015     6.188
    23   6 C        3.833     0.130    18.451     6.111
    24   6 C        3.755    -0.120    22.856     6.817
    25   1 H        0.925     0.052     2.301     2.372
    26   1 H        0.925     0.044     2.396     2.421
    27   1 H        0.925     0.052     2.299     2.371
    28   6 C        3.755    -0.109    22.643     6.785
    29   1 H        0.925     0.047     2.360     2.402
    30   1 H        0.925     0.042     2.420     2.433
    31   1 H        0.925     0.027     2.633     2.538
    32   6 C        3.839     0.131    18.432     6.108
    33   8 O        1.637    -0.408    21.013     6.188
    34   6 C        3.755    -0.121    22.878     6.820
    35   1 H        0.925     0.053     2.277     2.360
    36   1 H        0.925     0.045     2.384     2.414
    37   1 H        0.925     0.048     2.343     2.394
    38   6 C        3.755    -0.119    22.832     6.813
    39   1 H        0.925     0.045     2.388     2.417
    40   1 H        0.925     0.053     2.288     2.365
    41   1 H        0.925     0.045     2.383     2.414
    42   5 B        2.625     0.404    16.032     6.769
    43   8 O        1.637    -0.385    20.566     6.121
    44   6 C        3.837     0.129    18.464     6.113
    45   6 C        3.754    -0.125    22.954     6.832
    46   1 H        0.925     0.055     2.258     2.350
    47   1 H        0.925     0.055     2.260     2.351
    48   1 H        0.925     0.049     2.331     2.388
    49   6 C        3.755    -0.121    22.873     6.819
    50   1 H        0.925     0.048     2.346     2.395
    51   1 H        0.925     0.046     2.377     2.411
    52   1 H        0.925     0.051     2.302     2.373
    53   6 C        3.833     0.128    18.490     6.118
    54   8 O        1.637    -0.379    20.449     6.104
    55   6 C        3.755    -0.124    22.940     6.829
    56   1 H        0.925     0.053     2.277     2.360
    57   1 H        0.925     0.055     2.262     2.352
    58   1 H        0.925     0.048     2.346     2.395
    59   6 C        3.755    -0.123    22.922     6.827
    60   1 H        0.925     0.046     2.365     2.405
    61   1 H        0.925     0.051     2.302     2.373
    62   1 H        0.925     0.052     2.301     2.372
    63   5 B        2.629     0.408    15.967     6.752
    64   8 O        1.638    -0.377    20.416     6.099
    65   6 C        3.833     0.125    18.524     6.123
    66   6 C        3.755    -0.130    23.054     6.846
    67   1 H        0.925     0.058     2.227     2.334
    68   1 H        0.925     0.055     2.261     2.352
    69   1 H        0.925     0.050     2.318     2.381
    70   6 C        3.755    -0.130    23.051     6.846
    71   1 H        0.925     0.062     2.179     2.308
    72   1 H        0.925     0.051     2.313     2.378
    73   1 H        0.925     0.053     2.282     2.362
    74   6 C        3.831     0.128    18.483     6.117
    75   8 O        1.637    -0.382    20.505     6.112
    76   6 C        3.755    -0.123    22.920     6.826
    77   1 H        0.925     0.051     2.307     2.375
    78   1 H        0.925     0.053     2.281     2.362
    79   1 H        0.925     0.054     2.266     2.354
    80   6 C        3.755    -0.121    22.870     6.819
    81   1 H        0.925     0.041     2.439     2.442
    82   1 H        0.925     0.047     2.360     2.402
    83   1 H        0.925     0.055     2.260     2.351
    84   1 H        0.926     0.053     2.281     2.362
    85   1 H        0.926     0.045     2.388     2.417
    86   6 C        2.919    -0.027    28.666     8.780
    87   7 N        2.863    -0.008    21.400     6.871
    88   6 C        3.074    -0.079    29.893     8.964
    89   6 C        3.751    -0.017    20.934     6.525
    90   6 C        3.044    -0.036    28.861     8.811
    91   6 C        3.027    -0.074    29.810     8.956
    92   1 H        0.926     0.015     2.818     2.625
    93   6 C        2.956     0.095    25.882     8.344
    94   1 H        0.924     0.078     2.000     2.211
    95   1 H        0.924     0.076     2.021     2.223
    96   1 H        0.926     0.019     2.746     2.591
    97   1 H        0.926     0.012     2.853     2.641
    98   7 N        1.842    -0.262    27.668     7.795
    99   6 C        2.916    -0.045    29.114     8.848
   100   6 C        2.907     0.055    26.769     8.484
   101   6 C        2.929    -0.016    28.411     8.741
   102   1 H        0.926     0.052     2.295     2.369
   103   6 C        2.914    -0.049    29.220     8.864
   104   1 H        0.925     0.042     2.427     2.436
   105   1 H        0.926     0.046     2.368     2.406
   106   1 H        0.926     0.046     2.375     2.410

 Mol. C6AA /au·bohr⁶  :     121697.337776
 Mol. C8AA /au·bohr⁸  :    3217195.356502
 Mol. α(0) /au        :        542.209067


Wiberg/Mayer (AO) data.
largest (>0.10) Wiberg bond orders for each atom

 ---------------------------------------------------------------------------
     #   Z sym  total        # sym  WBO       # sym  WBO       # sym  WBO
 ---------------------------------------------------------------------------
     1   7 N    3.395 --     6 C    1.385     2 C    1.304    19 Ir   0.434
     2   6 C    3.979 --     3 C    1.345     1 N    1.304    10 C    1.097
     3   6 C    3.987 --     4 C    1.486     2 C    1.345     9 H    0.962
                             6 C    0.106
     4   6 C    3.984 --     3 C    1.486     5 C    1.378    84 H    0.969
     5   6 C    3.978 --     6 C    1.464     4 C    1.378     8 H    0.969
     6   6 C    3.978 --     5 C    1.464     1 N    1.385     7 H    0.957
                             3 C    0.106
     7   1 H    0.997 --     6 C    0.957
     8   1 H    0.996 --     5 C    0.969
     9   1 H    0.997 --     3 C    0.962
    10   6 C    3.978 --    15 C    1.352    11 N    1.295     2 C    1.097
    11   7 N    3.401 --    12 C    1.372    10 C    1.295    19 Ir   0.438
    12   6 C    3.973 --    13 C    1.466    11 N    1.372    18 H    0.946
                            15 C    0.105
    13   6 C    3.983 --    12 C    1.466    14 C    1.377    17 H    0.969
    14   6 C    3.981 --    15 C    1.479    13 C    1.377    85 H    0.969
    15   6 C    3.989 --    14 C    1.479    10 C    1.352    16 H    0.962
                            12 C    0.105
    16   1 H    0.998 --    15 C    0.962
    17   1 H    0.997 --    13 C    0.969
    18   1 H    0.993 --    12 C    0.946
    19  77 Ir   5.189 --    42 B    0.865    63 B    0.850    21 B    0.700
                            86 C    0.605    20 H    0.566    11 N    0.438
                             1 N    0.434
    20   1 H    0.989 --    19 Ir   0.566    86 C    0.321
    21   5 B    3.274 --    33 O    1.107    22 O    1.094    19 Ir   0.700
    22   8 O    2.192 --    21 B    1.094    23 C    0.943
    23   6 C    3.944 --    24 C    0.996    28 C    0.990    22 O    0.943
                            32 C    0.940
    24   6 C    3.994 --    23 C    0.996    26 H    0.984    27 H    0.983
                            25 H    0.983
    25   1 H    0.997 --    24 C    0.983
    26   1 H    0.997 --    24 C    0.984
    27   1 H    0.997 --    24 C    0.983
    28   6 C    3.997 --    23 C    0.990    29 H    0.984    30 H    0.984
                            31 H    0.984
    29   1 H    0.997 --    28 C    0.984
    30   1 H    0.998 --    28 C    0.984
    31   1 H    0.999 --    28 C    0.984
    32   6 C    3.940 --    38 C    0.997    34 C    0.991    23 C    0.940
                            33 O    0.939
    33   8 O    2.195 --    21 B    1.107    32 C    0.939
    34   6 C    3.994 --    32 C    0.991    36 H    0.983    37 H    0.982
                            35 H    0.980
    35   1 H    0.997 --    34 C    0.980
    36   1 H    0.997 --    34 C    0.983
    37   1 H    0.997 --    34 C    0.982
    38   6 C    3.994 --    32 C    0.997    41 H    0.984    39 H    0.983
                            40 H    0.983
    39   1 H    0.998 --    38 C    0.983
    40   1 H    0.997 --    38 C    0.983
    41   1 H    0.997 --    38 C    0.984
    42   5 B    3.335 --    43 O    1.112    54 O    1.112    19 Ir   0.865
    43   8 O    2.224 --    42 B    1.112    44 C    0.936
    44   6 C    3.937 --    45 C    0.997    49 C    0.991    53 C    0.939
                            43 O    0.936
    45   6 C    3.993 --    44 C    0.997    48 H    0.983    46 H    0.982
                            47 H    0.982
    46   1 H    0.997 --    45 C    0.982
    47   1 H    0.997 --    45 C    0.982
    48   1 H    0.996 --    45 C    0.983
    49   6 C    3.994 --    44 C    0.991    50 H    0.984    51 H    0.982
                            52 H    0.980
    50   1 H    0.997 --    49 C    0.984
    51   1 H    0.998 --    49 C    0.982
    52   1 H    0.997 --    49 C    0.980
    53   6 C    3.938 --    55 C    0.996    59 C    0.992    44 C    0.939
                            54 O    0.934
    54   8 O    2.231 --    42 B    1.112    53 C    0.934
    55   6 C    3.993 --    53 C    0.996    58 H    0.983    57 H    0.983
                            56 H    0.983
    56   1 H    0.997 --    55 C    0.983
    57   1 H    0.997 --    55 C    0.983
    58   1 H    0.996 --    55 C    0.983
    59   6 C    3.994 --    53 C    0.992    61 H    0.983    62 H    0.983
                            60 H    0.983
    60   1 H    0.998 --    59 C    0.983
    61   1 H    0.996 --    59 C    0.983
    62   1 H    0.997 --    59 C    0.983
    63   5 B    3.362 --    75 O    1.116    64 O    1.111    19 Ir   0.850
    64   8 O    2.229 --    63 B    1.111    65 C    0.937
    65   6 C    3.937 --    70 C    0.997    66 C    0.991    74 C    0.939
                            64 O    0.937
    66   6 C    3.992 --    65 C    0.991    69 H    0.983    68 H    0.982
                            67 H    0.979
    67   1 H    0.997 --    66 C    0.979
    68   1 H    0.997 --    66 C    0.982
    69   1 H    0.996 --    66 C    0.983
    70   6 C    3.992 --    65 C    0.997    72 H    0.983    73 H    0.982
                            71 H    0.982
    71   1 H    0.996 --    70 C    0.982
    72   1 H    0.996 --    70 C    0.983
    73   1 H    0.997 --    70 C    0.982
    74   6 C    3.935 --    76 C    0.997    80 C    0.991    65 C    0.939
                            75 O    0.935
    75   8 O    2.231 --    63 B    1.116    74 C    0.935
    76   6 C    3.993 --    74 C    0.997    77 H    0.983    78 H    0.982
                            79 H    0.981
    77   1 H    0.996 --    76 C    0.983
    78   1 H    0.997 --    76 C    0.982
    79   1 H    0.997 --    76 C    0.981
    80   6 C    3.995 --    74 C    0.991    81 H    0.984    83 H    0.983
                            82 H    0.983
    81   1 H    0.998 --    80 C    0.984
    82   1 H    0.998 --    80 C    0.983
    83   1 H    0.996 --    80 C    0.983
    84   1 H    0.996 --     4 C    0.969
    85   1 H    0.997 --    14 C    0.969
    86   6 C    3.900 --    88 C    1.476    87 N    1.199    19 Ir   0.605
                            20 H    0.321    90 C    0.121
    87   7 N    3.616 --    86 C    1.199    90 C    1.197    89 C    1.006
    88   6 C    3.973 --    86 C    1.476    91 C    1.335    92 H    0.968
    89   6 C    3.978 --    87 N    1.006    93 C    0.992    95 H    0.948
                            94 H    0.940
    90   6 C    3.932 --    91 C    1.538    87 N    1.197    96 H    0.970
                            86 C    0.121
    91   6 C    3.974 --    90 C    1.538    88 C    1.335    97 H    0.974
    92   1 H    1.000 --    88 C    0.968
    93   6 C    3.979 --    98 N    1.405    99 C    1.397    89 C    0.992
                           103 C    0.109
    94   1 H    0.993 --    89 C    0.940
    95   1 H    0.994 --    89 C    0.948
    96   1 H    0.998 --    90 C    0.970
    97   1 H    0.999 --    91 C    0.974
    98   7 N    3.049 --   100 C    1.438    93 C    1.405   101 C    0.101
    99   6 C    3.991 --   101 C    1.448    93 C    1.397   102 H    0.964
                           100 C    0.114
   100   6 C    3.980 --    98 N    1.438   103 C    1.428   104 H    0.963
                            99 C    0.114
   101   6 C    3.989 --    99 C    1.448   103 C    1.436   105 H    0.969
                            98 N    0.101
   102   1 H    0.997 --    99 C    0.964
   103   6 C    3.991 --   101 C    1.436   100 C    1.428   106 H    0.970
                            93 C    0.109
   104   1 H    0.998 --   100 C    0.963
   105   1 H    0.998 --   101 C    0.969
   106   1 H    0.997 --   103 C    0.970
 ---------------------------------------------------------------------------

Topologies differ in total number of bonds
Writing topology from bond orders to xtbtopo.mol

molecular dipole:
                 x           y           z       tot (Debye)
 q only:       -0.061       0.349      -1.073
   full:       -1.190       0.952      -1.522       5.475
molecular quadrupole (traceless):
                xx          xy          yy          xz          yz          zz
 q only:       12.736      -0.165       2.455      -2.792      15.102     -15.190
  q+dip:       14.964      -1.755       0.562      -3.169      21.672     -15.527
   full:       12.777      -0.582       0.078      -6.683      17.717     -12.855


           -------------------------------------------------
          | TOTAL ENERGY             -152.896467194754 Eh   |
          | GRADIENT NORM               0.032682653076 Eh/α |
          | HOMO-LUMO GAP               0.874240655383 eV   |
           -------------------------------------------------

------------------------------------------------------------------------
 * finished run on 2021/10/08 at 07:17:59.292     
------------------------------------------------------------------------
 total:
 * wall-time:     0 d,  0 h,  0 min,  0.159 sec
 *  cpu-time:     0 d,  0 h,  0 min,  0.929 sec
 * ratio c/w:     5.847 speedup
 SCF:
 * wall-time:     0 d,  0 h,  0 min,  0.116 sec
 *  cpu-time:     0 d,  0 h,  0 min,  0.690 sec
 * ratio c/w:     5.971 speedup

