106
 energy: -152.860388461959 gnorm: 0.078980296728 xtb: 6.4.0 (f63f532)
N        -0.96510000000000   -2.11530000000000   -0.24090000000000
C        -2.24700000000000   -1.69840000000000   -0.36220000000000
C        -3.14040000000000   -2.36820000000000   -1.21200000000000
C        -2.70220000000000   -3.47560000000000   -1.93050000000000
C        -1.37780000000000   -3.89880000000000   -1.78760000000000
C        -0.54290000000000   -3.18670000000000   -0.93510000000000
H         0.49810000000000   -3.45630000000000   -0.78940000000000
H        -0.99570000000000   -4.76030000000000   -2.32770000000000
H        -4.16500000000000   -2.02890000000000   -1.31830000000000
C        -2.62130000000000   -0.50950000000000    0.44100000000000
N        -1.62600000000000    0.07330000000000    1.16020000000000
C        -1.89680000000000    1.15240000000000    1.91690000000000
C        -3.17230000000000    1.70329999999999    1.99650000000000
C        -4.20510000000000    1.11740000000000    1.26270000000000
C        -3.92610000000000    0.00250000000000    0.47820000000000
H        -4.71960000000000   -0.46420000000000   -0.09520000000000
H        -3.34630000000000    2.57510000000000    2.62070000000000
H        -1.04450000000000    1.57420000000000    2.43690000000000
Ir        0.42150000000000   -0.81650000000000    0.91330000000000
H         0.87260000000000   -2.23030000000000    1.54050000000000
B         0.50670000000000    0.41560000000000   -0.81540000000000
O         0.19500000000000   -0.04700000000000   -2.09150000000000
C         0.00650000000000    1.10040000000000   -2.95430000000000
C         0.49020000000000    0.74740000000000   -4.35780000000000
H         1.51610000000000    0.37380000000000   -4.33700000000000
H         0.44730000000000    1.62240000000000   -5.01670000000000
H        -0.14740000000000   -0.03390000000000   -4.78430000000000
C        -1.50120000000000    1.39560000000000   -2.96670000000000
H        -1.75370000000000    2.21460000000000   -3.64850000000000
H        -2.03200000000000    0.49450000000000   -3.28930000000000
H        -1.85170000000000    1.65210000000000   -1.96220000000000
C         0.84230000000000    2.20670000000000   -2.22040000000000
O         0.75200000000000    1.78260000000000   -0.83690000000000
C         2.32930000000000    2.18620000000000   -2.59900000000000
H         2.74130000000000    1.18500000000000   -2.45750000000000
H         2.48870000000000    2.51300000000000   -3.63180000000000
H         2.87200000000000    2.86270000000000   -1.93200000000000
C         0.28440000000000    3.62290000000000   -2.33660000000000
H        -0.72650000000000    3.69040000000000   -1.92910000000000
H         0.92130000000000    4.31480000000000   -1.77610000000000
H         0.26430000000000    3.94810000000000   -3.38320000000000
B         1.56300000000000    0.60960000000000    1.84840000000000
O         2.92780000000000    0.55230000000000    2.15020000000000
C         3.36330000000000    1.88660000000000    2.50260000000000
C         4.53140000000000    1.78590000000000    3.47740000000000
H         4.27910000000000    1.16090000000000    4.33690000000000
H         5.39390000000000    1.33790000000000    2.97340000000000
H         4.82390000000000    2.77870000000000    3.83820000000000
C         3.79700000000000    2.56850000000000    1.19670000000000
H         4.20020000000000    3.57090000000000    1.37680000000000
H         4.56740000000000    1.95560000000000    0.72110000000000
H         2.95240000000000    2.63260000000000    0.50540000000000
C         2.05040000000000    2.50090000000000    3.09320000000000
O         1.03750000000000    1.81620000000000    2.31910000000000
C         1.89100000000000    4.00450000000000    2.88650000000000
H         1.87290000000000    4.25440000000000    1.82410000000000
H         0.94940000000000    4.34260000000000    3.33170000000000
H         2.71080000000000    4.55150000000000    3.36630000000000
C         1.82470000000000    2.13200000000000    4.56520000000000
H         1.92610000000000    1.05330000000000    4.71320000000000
H         2.52610000000000    2.65280000000000    5.22540000000000
H         0.80630000000000    2.41580000000000    4.84900000000000
B         2.27820000000000   -1.33090000000000    0.17410000000000
O         2.89460000000000   -2.57740000000000    0.38450000000000
C         4.26930000000000   -2.48200000000000   -0.07210000000000
C         5.10900000000000   -2.05380000000000    1.14010000000000
H         4.76350000000000   -1.08740000000000    1.51750000000000
H         4.98050000000000   -2.79470000000000    1.93590000000000
H         6.17420000000000   -1.99290000000000    0.89300000000000
C         4.71950000000000   -3.84660000000000   -0.58470000000000
H         4.75280000000000   -4.56130000000000    0.24420000000000
H         5.72330000000000   -3.78370000000000   -1.02010000000000
H         4.03500000000000   -4.23600000000000   -1.34170000000000
C         4.16440000000000   -1.36220000000000   -1.16300000000000
O         3.08520000000000   -0.55030000000000   -0.65400000000000
C         5.40720000000000   -0.48870000000000   -1.31550000000000
H         6.27320000000000   -1.09010000000000   -1.61530000000000
H         5.23300000000000    0.26930000000000   -2.08590000000000
H         5.64270000000000    0.02650000000000   -0.38240000000000
C         3.71800000000000   -1.89830000000000   -2.53110000000000
H         2.82530000000000   -2.52160000000000   -2.42740000000000
H         3.46090000000000   -1.05250000000000   -3.17550000000000
H         4.50570000000000   -2.48290000000000   -3.01790000000000
H        -3.38500000000000   -4.00130000000000   -2.59310000000000
H        -5.21400000000000    1.52080000000000    1.29960000000000
C         0.23589999999999   -1.68140000000000    2.96030000000001
N        -1.04362763596732   -1.77619831977950    3.52177925819440
C         1.11146166106001   -1.77724200626635    4.01834855682634
C        -2.40906136039202   -1.93059397698270    3.03484447026777
C        -0.93055677816212   -1.90114943464130    4.88020318463352
C         0.38998797482222   -1.90232804361045    5.22450224803195
H         2.18122900164453   -1.76845951610241    3.91591316437541
C        -3.42905556554881   -0.88180160960878    3.44661940119513
H        -2.43372855930195   -2.03395311812571    1.95056895013474
H        -2.80725020919280   -2.87905011829666    3.42066196849052
H        -1.81656594983825   -1.99307886989324    5.48731764125769
H         0.77560484425236   -1.99878648014198    6.22446562234774
N        -4.64746182275905   -1.05342366327238    2.91281945388290
C        -3.17646303574301    0.19393606108984    4.29695284538170
C        -5.59925276864061   -0.15053244060774    3.15139072725068
C        -4.18226851344977    1.11768982831533    4.55850387097729
H        -2.18948947267771    0.33448358670368    4.71379733412110
C        -5.42151971656214    0.96290638376366    3.95565290963402
H        -6.53524605193750   -0.31257087880953    2.62642488441966
H        -3.98163044070844    1.98004514995545    5.18165086716604
H        -6.20172121963630    1.70458505787113    4.06352986780244
106
 energy: -152.874079579104 gnorm: 0.048424096506 xtb: 6.4.0 (f63f532)
N        -0.96407278990972   -2.09524653477738   -0.25889334073675
C        -2.23855779324945   -1.67383667060939   -0.38885245798138
C        -3.13549563816740   -2.35724653240858   -1.21847477391122
C        -2.70533250165665   -3.46565217359513   -1.92446076408902
C        -1.38496610740670   -3.88465154887666   -1.78256602042215
C        -0.55651945031107   -3.16989355449223   -0.93945816585134
H         0.47704624878384   -3.45039235969142   -0.78638116056237
H        -1.00770633473992   -4.74622368913789   -2.31535027464048
H        -4.15662584325981   -2.02379799686079   -1.32051142482340
C        -2.60265381037089   -0.47175282570884    0.38189931646284
N        -1.60954871006953    0.10534996013757    1.09921613048701
C        -1.88428012313596    1.17688331721696    1.84254045781145
C        -3.14462602037464    1.74789690495657    1.90182838247026
C        -4.17350873521095    1.17029320761994    1.17059681874369
C        -3.90165242855902    0.04120342735278    0.41669334746686
H        -4.70376302072104   -0.44951415322216   -0.11379934751502
H        -3.32624185831456    2.59052851606958    2.55575889083634
H        -1.04892022153383    1.56867081846940    2.40672818316136
Ir        0.42150000000001   -0.81650000000000    0.91330000000000
H         0.87260000000000   -2.23030000000000    1.54050000000000
B         0.49975646057585    0.41947741972717   -0.79384451757505
O         0.18144297425189   -0.03750884708986   -2.06688034218441
C         0.01438510965089    1.09514837918575   -2.94603710419996
C         0.49346341642286    0.74577442889379   -4.35147704777212
H         1.51265204687462    0.36929996979564   -4.32980103262394
H         0.44912388758018    1.62061079944995   -5.00103253470738
H        -0.14475262569775   -0.03065468237261   -4.77224441630538
C        -1.49058586806356    1.39755252199387   -2.97134244510352
H        -1.73108661374743    2.21080107401824   -3.65470355690341
H        -2.02117020303194    0.50059466639698   -3.29115975703182
H        -1.83799584599615    1.65210500465957   -1.96972497328182
C         0.83731333151209    2.20439058667841   -2.21422255033620
O         0.75942403142543    1.77669964438024   -0.83746876570838
C         2.32090874122337    2.18769225730769   -2.60007244555957
H         2.72551382751497    1.18848347037029   -2.45060897808988
H         2.47510985428998    2.50973447689772   -3.62937587104263
H         2.86308764716662    2.86147382700070   -1.93735660868535
C         0.28596231055146    3.62119241867266   -2.34084289191788
H        -0.71807755381207    3.69002174763094   -1.92994743329812
H         0.92449911091472    4.30515275469255   -1.78292281781556
H         0.26913579991260    3.93545137925797   -3.38468508711555
B         1.56473630200969    0.60751957182152    1.86870112524495
O         2.92686461983586    0.56154124841908    2.14135468778298
C         3.36325496479608    1.88446018604529    2.50989739130670
C         4.53274890811515    1.78820906086610    3.48153959024304
H         4.27904566747392    1.16086952176029    4.33207155116783
H         5.38772342891371    1.34199422853206    2.97518400868987
H         4.81665653724045    2.77853340873689    3.83707072473603
C         3.79959793394229    2.57047829221945    1.20983719575308
H         4.20162546259383    3.56651842879505    1.39174036155811
H         4.56377090634051    1.95830660324929    0.73359925874571
H         2.95267526119751    2.62334036299756    0.52677099185444
C         2.05284596587726    2.50330612933443    3.08962144093773
O         1.04145418503494    1.80588100705327    2.33644218655270
C         1.89443644802541    4.00597676943535    2.88749833129289
H         1.87120985447984    4.24941197680709    1.82898039919266
H         0.95641802175864    4.33695411183580    3.33199081573825
H         2.71410909230232    4.54311156652499    3.36445465773340
C         1.82904690818454    2.13923133753027    4.56192225180353
H         1.92817529601483    1.06297203785793    4.70004024432974
H         2.52932930573477    2.65953254227410    5.21318211804977
H         0.81438228378974    2.42005330134994    4.84414472784476
B         2.27819999999993   -1.33090000000009    0.17410000000001
O         2.89935861286646   -2.56328006935709    0.38970259342908
C         4.26522724371764   -2.48542183465927   -0.07424198674635
C         5.10822555864191   -2.06055726676685    1.13345931184629
H         4.75238289829476   -1.10058073925541    1.50555558350808
H         4.97547143287415   -2.79557355212019    1.92661160721042
H         6.16676739373974   -2.00084857250438    0.88407685923499
C         4.71924376551992   -3.84862686329026   -0.58325893308899
H         4.74733050326329   -4.55331343260647    0.24672214976803
H         5.71763878114367   -3.77900234837125   -1.01451867181160
H         4.03407464041032   -4.23565008821870   -1.33286322248303
C         4.16721404327274   -1.36310781194995   -1.15593000685584
O         3.07664284360087   -0.56420437162916   -0.66059035711120
C         5.41105329069874   -0.49512496441256   -1.31313647414875
H         6.26766301952236   -1.10053344939123   -1.60863677202872
H         5.23337192646029    0.25670938973853   -2.08111075601742
H         5.63854937451243    0.01903174913092   -0.38365603606523
C         3.72839465843519   -1.90234116171309   -2.52419456452374
H         2.83561033341752   -2.51701150659740   -2.41573313446236
H         3.47136532219487   -1.06069552517223   -3.16628666389398
H         4.51684566913403   -2.48081369206111   -3.00303031077806
H        -3.38400258391664   -3.99265464246945   -2.58139836229252
H        -5.18275909844379    1.55462684833524    1.23353285731583
C         0.23590000000018   -1.68140000000005    2.96030000000010
N        -1.03828306161050   -1.78569825230451    3.53893579214553
C         1.12412257395224   -1.76769633851199    4.01095003046151
C        -2.39883998742737   -1.95347070683857    3.05450850243586
C        -0.90613154605107   -1.90610834058193    4.89457333533306
C         0.41577595499549   -1.89590329196960    5.22375053640126
H         2.19112377594083   -1.75089104876855    3.90158678195409
C        -3.42033916735356   -0.90260807919260    3.46855133427184
H        -2.42279574684134   -2.05563151676096    1.97295161476059
H        -2.78763157959037   -2.90448564030082    3.44360120497614
H        -1.78265992127578   -2.00306995399751    5.51008664448403
H         0.81240868820389   -1.98697082306290    6.21761440218834
N        -4.63466806727185   -1.08177581075065    2.94223031876865
C        -3.16625587760374    0.17382771172051    4.31704998574428
C        -5.58660826409101   -0.18726052260523    3.18094746790278
C        -4.17421398209697    1.09228818935539    4.58142452352725
H        -2.17875118684342    0.32042893947804    4.72498965236080
C        -5.41303621570859    0.92931225579596    3.98247415858100
H        -6.52240192673154   -0.35667788252709    2.66002854956730
H        -3.97620999552911    1.95584712468831    5.20111810978268
H        -6.19715691644455    1.66493678685820    4.09277479702964
106
 energy: -152.880884513894 gnorm: 0.036547843271 xtb: 6.4.0 (f63f532)
N        -0.96017016055172   -2.07784883760382   -0.27629778974580
C        -2.22853603379492   -1.64925564945819   -0.41659368436301
C        -3.13042444943785   -2.33833257230749   -1.23475773734109
C        -2.71039500182358   -3.45316152818747   -1.92750463820544
C        -1.39159877281032   -3.87340142648755   -1.78362187824388
C        -0.56589252877841   -3.15676254233194   -0.94593617038701
H         0.46211588828387   -3.44888760369986   -0.78687688287940
H        -1.02040000191373   -4.73856820967667   -2.30772828485685
H        -4.15053295491084   -2.00829321779548   -1.32846899073771
C        -2.58636715122212   -0.44696845087232    0.33735246761575
N        -1.59685391349871    0.11752903181689    1.06511908177884
C        -1.87440748792794    1.19042288738735    1.79230350728366
C        -3.12474599492842    1.77701746275831    1.83728737961669
C        -4.15411371665052    1.20086886058981    1.10840232771059
C        -3.88121232268537    0.07294152455775    0.36140636172298
H        -4.68234124110250   -0.41944352337271   -0.16090843222607
H        -3.30045003729350    2.63101547373279    2.46974187613722
H        -1.04747322026466    1.58304289930212    2.36264277254421
Ir        0.42150000000002   -0.81650000000000    0.91329999999999
H         0.87260000000000   -2.23030000000000    1.54050000000000
B         0.50918657670042    0.42524035685718   -0.77440004804270
O         0.16901129199549   -0.03094876028240   -2.04073499684903
C         0.01781361118679    1.08878301072344   -2.93008702031217
C         0.50006873844780    0.73655611972139   -4.33437900368257
H         1.51534099000646    0.35696038934909   -4.31469900329057
H         0.45477146260997    1.61465531541087   -4.97334334408851
H        -0.14193571915039   -0.03348732366483   -4.75356474752547
C        -1.48540722897464    1.40073474889283   -2.97398402472716
H        -1.70784872586548    2.21024556801917   -3.66222047654760
H        -2.01548739599482    0.50647717557359   -3.29445978140170
H        -1.83420414083576    1.65791557066184   -1.97604260570647
C         0.83672999968323    2.19995824556087   -2.20385446633066
O         0.77017002980592    1.77590481493063   -0.83269890621626
C         2.31791547340621    2.18746204528570   -2.59915313425591
H         2.71771288746581    1.18932291102588   -2.44264837513970
H         2.46097253078473    2.50304394292689   -3.62840004783274
H         2.85943591327331    2.86394925506229   -1.94284464743867
C         0.28528918573317    3.61622614802503   -2.34056221417603
H        -0.71506126222444    3.69114258303387   -1.92838645999153
H         0.92833346255203    4.29722389582175   -1.79003754129606
H         0.27190055906611    3.91443088151381   -3.38528004720926
B         1.57130220539051    0.61043895028283    1.87613262700256
O         2.92677224708297    0.56896375668574    2.13446191448940
C         3.36311879549054    1.88219079370923    2.51478868328081
C         4.53072108730675    1.78758591793183    3.48953207212351
H         4.27820642506526    1.15757887746265    4.33486994666673
H         5.38232498883980    1.34615835034378    2.97998787956844
H         4.80530119842479    2.77777186350953    3.84063719681737
C         3.80465594159300    2.57507660778097    1.22056854673247
H         4.20395565128522    3.56685422092253    1.40817148438515
H         4.56682232082839    1.96357032494769    0.74570035195602
H         2.95590398006436    2.62059519276587    0.54267038995829
C         2.05379729621810    2.50099443230711    3.08966610328984
O         1.04518211183106    1.79458795828001    2.35169741792257
C         1.89759071144118    4.00362582844456    2.88489584457492
H         1.86944067161839    4.24453001952076    1.82851067604182
H         0.96366204442625    4.33120478249946    3.33268047073696
H         2.71975314631937    4.53141421754655    3.35902437022051
C         1.83658169247495    2.14670976632343    4.56591134885054
H         1.93382958847240    1.07164818707465    4.69685863079574
H         2.53853016735684    2.66856954987485    5.20771093341405
H         0.82410798397529    2.42758752192150    4.84567033992912
B         2.27819999999986   -1.33090000000019    0.17410000000003
O         2.89984148773212   -2.55155533455061    0.39900611886604
C         4.25689141119580   -2.48709446701309   -0.07095199118099
C         5.10803438441563   -2.06652805988296    1.13185141791533
H         4.74575835431385   -1.10991126511496    1.49988018768452
H         4.97294517725961   -2.79957610546134    1.92236305519829
H         6.16115088002589   -2.00859525507439    0.87630301280957
C         4.71084158256452   -3.85086351703518   -0.57997846397323
H         4.73820128131902   -4.54750250623415    0.25245375604485
H         5.70595445330111   -3.77345319830211   -1.00762477390067
H         4.02664521717548   -4.23915992367059   -1.32559852523348
C         4.16507126205912   -1.36653186250469   -1.15045299711540
O         3.06762339397308   -0.57561167336804   -0.66716417594756
C         5.41162668273933   -0.50249074977996   -1.30476989627390
H         6.25936530129137   -1.11595412322016   -1.59477592822042
H         5.23543534258116    0.24274650829886   -2.07503375794599
H         5.63536462255488    0.01303788763874   -0.37833607827761
C         3.73921278207020   -1.91016716452729   -2.52160942857026
H         2.84644018343533   -2.51972712409116   -2.40977652513452
H         3.48585000653158   -1.07044586374416   -3.16366483607077
H         4.53209974407640   -2.48545088312576   -2.98807178740557
H        -3.39117574252708   -3.98798975494172   -2.57077054718219
H        -5.15445119886816    1.59980786716682    1.15223474902223
C         0.23590000000038   -1.68140000000010    2.96030000000020
N        -1.02620212038263   -1.79702152106496    3.55917041076544
C         1.14385250614724   -1.75223742997874    3.99721173802880
C        -2.37503989442579   -1.97210149112768    3.06315809195912
C        -0.87044933312309   -1.91494325878748    4.91238130573756
C         0.45605234000674   -1.88632782672883    5.22090142255420
H         2.20833564945449   -1.72073336330840    3.87431530841774
C        -3.39385950207453   -0.91342874068075    3.46585289848919
H        -2.38930771738993   -2.06532019546765    1.98074186798370
H        -2.76275244702202   -2.92404953063160    3.45354514523756
H        -1.73468421992751   -2.02018587155535    5.54202233007815
H         0.87161140190541   -1.96689817803275    6.20730566785296
N        -4.60353412842941   -1.09897335301078    2.94066486277643
C        -3.13560561575748    0.16223680150213    4.31228055088367
C        -5.55990917784224   -0.21960836844685    3.18947854911352
C        -4.14805709764742    1.07181087751626    4.58224695966869
H        -2.15282471568800    0.30179786002133    4.73083293649197
C        -5.39090795654819    0.89509443261913    3.99523454920206
H        -6.50688952267107   -0.41286873237513    2.69777957033851
H        -3.96150030214616    1.92240271209935    5.22218761505933
H        -6.19013755758971    1.60904374028629    4.13409346304150
106
 energy: -152.885487984040 gnorm: 0.034166049939 xtb: 6.4.0 (f63f532)
N        -0.95483388533661   -2.06778097807117   -0.29161934592933
C        -2.22014553513885   -1.63138100320667   -0.44061527316338
C        -3.12714399690751   -2.32169984071035   -1.25367049757167
C        -2.71610441824818   -3.44584834210904   -1.93522728064554
C        -1.39709819921776   -3.87046575737680   -1.78916947017351
C        -0.56892384466237   -3.15250667937967   -0.95452484523044
H         0.45605238867087   -3.45426299644499   -0.79151003288129
H        -1.03161610602977   -4.74186152549379   -2.30568136518118
H        -4.14549988371395   -1.98596687393495   -1.34635709307385
C        -2.57261995563405   -0.42683886787513    0.30137078432698
N        -1.58489771515813    0.13136639935433    1.03813187864435
C        -1.86070704333887    1.22005962287447    1.74254913119083
C        -3.10426644446994    1.82323357684714    1.76618792523928
C        -4.13475881054796    1.24631178127023    1.03523175437639
C        -3.86267811013241    0.10954896174180    0.30223964790506
H        -4.66013398275182   -0.37819426014586   -0.22815750080610
H        -3.27652229706858    2.68730963103008    2.38506681335210
H        -1.03990975464017    1.61159719706900    2.32277666540074
Ir        0.42150000000003   -0.81650000000000    0.91329999999998
H         0.87259999999999   -2.23030000000000    1.54050000000001
B         0.50535588378244    0.43566639056783   -0.75700121647747
O         0.15567890731138   -0.02714766559009   -2.01845099326392
C         0.01764519080523    1.08346593113386   -2.91369450541076
C         0.50708357673623    0.72274713937077   -4.31444543283405
H         1.52031120955050    0.33800186737635   -4.29198780046227
H         0.46667404802763    1.60298838428982   -4.95025959414975
H        -0.13907791615676   -0.04320954951140   -4.73457439125304
C        -1.48421241925048    1.40506580031687   -2.97560619588357
H        -1.68931436424871    2.21287154333885   -3.67063420350465
H        -2.01523151965191    0.51246199395878   -3.29869814190557
H        -1.84131334757726    1.66901714907721   -1.98247049579617
C         0.83824237396826    2.19673917909221   -2.19222772701296
O         0.78074806833494    1.78072794894576   -0.82276053155422
C         2.31788294654646    2.18536499889564   -2.59731322033760
H         2.71829124496985    1.18845994223082   -2.43493736844608
H         2.45068409751918    2.49337911406758   -3.62973769515767
H         2.86052017606090    2.86864943617330   -1.94919535740426
C         0.28561393933542    3.61278404281902   -2.33795936977197
H        -0.71371879206834    3.69344879799338   -1.92455718962978
H         0.93261319911512    4.29736366648243   -1.79667424774274
H         0.27115777714526    3.89657555035281   -3.38641273212661
B         1.57500291574806    0.60644885001385    1.88843812502755
O         2.92959320848054    0.57071466838293    2.12839610025360
C         3.36380994279988    1.87906883613609    2.51783835383581
C         4.52951142157265    1.78447410137268    3.49679269636506
H         4.27805728033215    1.15119217943137    4.33987764641342
H         5.38368682780320    1.34906056731557    2.98649134343848
H         4.79633776628770    2.77593748153255    3.84933750323686
C         3.81034981388902    2.58045210764260    1.22872781966524
H         4.20631145724874    3.57144496425715    1.42393725970907
H         4.57554126294542    1.97172010816713    0.75519467715577
H         2.96257578915604    2.62541255356953    0.54988778057202
C         2.05453476971004    2.49734721568042    3.09315819563406
O         1.04641722033078    1.78388894281287    2.36677557545227
C         1.89853504528573    4.00013950661179    2.88117919073069
H         1.86529897671513    4.23861425773582    1.82430436056073
H         0.96806812148213    4.32998391410183    3.33426770335495
H         2.72549108612736    4.52452272142611    3.35003155669830
C         1.84490421176162    2.15410647284636    4.57433525731395
H         1.94137051038531    1.07953351908003    4.70749847834802
H         2.55133980271097    2.67954528104089    5.20733460919685
H         0.83376608900390    2.43799036728263    4.85503195380229
B         2.27819999999977   -1.33090000000031    0.17410000000004
O         2.89801742225953   -2.54581501911648    0.41081716706191
C         4.24900042595860   -2.48938875228101   -0.06491548711890
C         5.10850789477788   -2.07120701397623    1.13405302499182
H         4.74679251091475   -1.11448717991050    1.50203693455267
H         4.97431360890116   -2.80508065137530    1.92376446858857
H         6.15937528031914   -2.01515872934676    0.87182375425673
C         4.69916427034419   -3.85583077497587   -0.57388623233718
H         4.72806765153427   -4.54929728377046    0.26092483842067
H         5.69344584661413   -3.77527811550652   -1.00193662980714
H         4.01439920367547   -4.24581129503461   -1.31802021978944
C         4.16195009260141   -1.37138477140592   -1.14723306066462
O         3.06058269816113   -0.58235050387990   -0.67527613462338
C         5.41116946831658   -0.50894770504855   -1.29543572989288
H         6.25602849254953   -1.12966596794754   -1.57763812317759
H         5.24127569665107    0.23213185384659   -2.07095572026867
H         5.63175268206198    0.00965164877980   -0.37003290091541
C         3.74943837564533   -1.91991555561897   -2.52165781672555
H         2.85625846585568   -2.52893253915529   -2.41299352949258
H         3.50271748165921   -1.08157893235122   -3.16804568954623
H         4.54849196707288   -2.49580842853703   -2.97557541426291
H        -3.40177755889040   -3.98685976010040   -2.56781350335836
H        -5.13262247032398    1.65358805525507    1.06663226860022
C         0.23590000000063   -1.68140000000016    2.96030000000032
N        -1.00819214085815   -1.81418651615977    3.57922514592548
C         1.16707677836288   -1.73352730584348    3.97938281310363
C        -2.34521092248223   -1.99427171588615    3.07071293554658
C        -0.82933356371896   -1.92652248272880    4.93029559419601
C         0.50329672857848   -1.87456242524519    5.21551577414038
H         2.22926814963726   -1.68387849358686    3.83793331669169
C        -3.36265999296920   -0.93255262400731    3.46307623560784
H        -2.34412457063380   -2.08006252901902    1.98668808344107
H        -2.73723942238794   -2.94614080368395    3.45721976628071
H        -1.68035888838446   -2.04264330516772    5.57668168615081
H         0.94138371421884   -1.94216373210631    6.19392568862253
N        -4.57087118308052   -1.12443112633233    2.93986329043934
C        -3.10087576360140    0.14159006798868    4.30914864522838
C        -5.53368375316063   -0.25845053040236    3.20298360975064
C        -4.11906386415468    1.04146122469323    4.58851202475824
H        -2.11772197933486    0.28091041505517    4.72714187867715
C        -5.36632030122249    0.85317101921073    4.01376330608754
H        -6.48567395212289   -0.46349622875943    2.72686885439209
H        -3.93736422006939    1.88899573330524    5.23371525832787
H        -6.17561055304457    1.55067926965992    4.17532005835810
106
 energy: -152.888958576836 gnorm: 0.032301612787 xtb: 6.4.0 (f63f532)
N        -0.95152840639420   -2.06363592818842   -0.30370089684877
C        -2.21449781332376   -1.61908725079640   -0.45994459459811
C        -3.12439332297427   -2.30790353402191   -1.27260933666744
C        -2.72108369783814   -3.44074766045790   -1.94409424443073
C        -1.40354907543489   -3.87185298239111   -1.79428726356249
C        -0.57116079851463   -3.15351848606391   -0.96278811086388
H         0.45233024629113   -3.46082056570515   -0.79944201065138
H        -1.04312483744538   -4.74916120604737   -2.30513029693358
H        -4.13954826860166   -1.96227627193269   -1.37069067958337
C        -2.56101770519035   -0.40718177621952    0.26956020352476
N        -1.57683248948760    0.14397076585624    1.01902586673816
C        -1.84940815207340    1.25012804903275    1.70251898344296
C        -3.08614579891694    1.86673890775670    1.70335751040195
C        -4.11585963872859    1.29167619874891    0.96616222034682
C        -3.84467678341294    0.14908974367426    0.24368802615008
H        -4.63690719627208   -0.32784429314365   -0.30567029038898
H        -3.25234193075228    2.75007310961621    2.29827267858098
H        -1.03036905151506    1.64889064962600    2.27922833926593