      -----------------------------------------------------------      
     |                   =====================                   |     
     |                           x T B                           |     
     |                   =====================                   |     
     |                         S. Grimme                         |     
     |          Mulliken Center for Theoretical Chemistry        |     
     |                    University of Bonn                     |     
      -----------------------------------------------------------      

   * xtb version 6.4.1 (1a32961) compiled by 'knkr256@seskscpg007.prim.scp' on 2021-10-19

   xtb is free software: you can redistribute it and/or modify it under
   the terms of the GNU Lesser General Public License as published by
   the Free Software Foundation, either version 3 of the License, or
   (at your option) any later version.
   
   xtb is distributed in the hope that it will be useful,
   but WITHOUT ANY WARRANTY; without even the implied warranty of
   MERCHANTABILITY or FITNESS FOR A PARTICULAR PURPOSE.  See the
   GNU Lesser General Public License for more details.
   
   Cite this work as:
   * C. Bannwarth, E. Caldeweyher, S. Ehlert, A. Hansen, P. Pracht,
     J. Seibert, S. Spicher, S. Grimme, WIREs Comput. Mol. Sci., 2020, 11,
     e01493. DOI: 10.1002/wcms.1493
   
   for GFN2-xTB:
   * C. Bannwarth, S. Ehlert and S. Grimme., J. Chem. Theory Comput., 2019,
     15, 1652-1671. DOI: 10.1021/acs.jctc.8b01176
   for GFN1-xTB:
   * S. Grimme, C. Bannwarth, P. Shushkov, J. Chem. Theory Comput., 2017,
     13, 1989-2009. DOI: 10.1021/acs.jctc.7b00118
   for GFN0-xTB:
   * P. Pracht, E. Caldeweyher, S. Ehlert, S. Grimme, ChemRxiv, 2019, preprint.
     DOI: 10.26434/chemrxiv.8326202.v1
   for GFN-FF:
   * S. Spicher and S. Grimme, Angew. Chem. Int. Ed., 2020, 59, 15665-15673.
     DOI: 10.1002/anie.202004239
   
   for ALPB and GBSA implicit solvation:
   * S. Ehlert, M. Stahn, S. Spicher, S. Grimme, J. Chem. Theory Comput.,
     2021, 17, 4250-4261. DOI: 10.1021/acs.jctc.1c00471
   
   for DFT-D4:
   * E. Caldeweyher, C. Bannwarth and S. Grimme, J. Chem. Phys., 2017,
     147, 034112. DOI: 10.1063/1.4993215
   * E. Caldeweyher, S. Ehlert, A. Hansen, H. Neugebauer, S. Spicher,
     C. Bannwarth and S. Grimme, J. Chem. Phys., 2019, 150, 154122.
     DOI: 10.1063/1.5090222
   * E. Caldeweyher, J.-M. Mewes, S. Ehlert and S. Grimme, Phys. Chem. Chem. Phys.
     2020, 22, 8499-8512. DOI: 10.1039/D0CP00502A
   
   for sTDA-xTB:
   * S. Grimme and C. Bannwarth, J. Chem. Phys., 2016, 145, 054103.
     DOI: 10.1063/1.4959605
   
   in the mass-spec context:
   * V. Asgeirsson, C. Bauer and S. Grimme, Chem. Sci., 2017, 8, 4879.
     DOI: 10.1039/c7sc00601b
   * J. Koopman and S. Grimme, ACS Omega 2019, 4, 12, 15120-15133.
     DOI: 10.1021/acsomega.9b02011
   
   for metadynamics refer to:
   * S. Grimme, J. Chem. Theory Comput., 2019, 155, 2847-2862
     DOI: 10.1021/acs.jctc.9b00143
   
   for SPH calculations refer to:
   * S. Spicher and S. Grimme, J. Chem. Theory Comput., 2021, 17, 1701-1714
     DOI: 10.1021/acs.jctc.0c01306
   
   with help from (in alphabetical order)
   P. Atkinson, C. Bannwarth, F. Bohle, G. Brandenburg, E. Caldeweyher
   M. Checinski, S. Dohm, S. Ehlert, S. Ehrlich, I. Gerasimov, J. Koopman
   C. Lavigne, S. Lehtola, F. März, M. Müller, F. Musil, H. Neugebauer
   J. Pisarek, C. Plett, P. Pracht, J. Seibert, P. Shushkov, S. Spicher
   M. Stahn, M. Steiner, T. Strunk, J. Stückrath, T. Rose, and J. Unsleber
   
 * started run on 2022/01/14 at 13:54:27.417     

           -------------------------------------------------
          |                Calculation Setup                |
           -------------------------------------------------

          program call               : xtb xtbopt.xyz --sp --alpb thf -P 6
          hostname                   : seskscpg007.prim.scp
          coordinate file            : xtbopt.xyz
          omp threads                :                     6
          number of atoms            :                   107
          number of electrons        :                   276
          charge                     :                     0
          spin                       :                   0.0
          first test random number   :      0.96533770256382

   ID    Z sym.   atoms
    1    7 N      1, 11, 91
    2    6 C      2-6, 10, 12-15, 23, 24, 28, 32, 34, 38, 44, 45, 49, 53, 55,
                  59, 65, 66, 70, 74, 76, 80, 86-89, 96-98
    3    1 H      7-9, 16-18, 20, 25-27, 29-31, 35-37, 39-41, 46-48, 50-52,
                  56-58, 60-62, 67-69, 71-73, 77-79, 81-85, 90, 92, 93, 99-107
    4   77 Ir     19
    5    5 B      21, 42, 63
    6    8 O      22, 33, 43, 54, 64, 75, 94
    7   14 Si     95

molecular fragmentation (1/2 indicates fragments):
111111111111111111111111111111111111111111111111111111111111111111111111
11111111111112222222222222222222222
# atoms in fragment 1/2:    85    22
 fragment masses (1/2) :      730.32      154.26
CMA distance (Bohr)    :  12.090
constraining FC (au)   :  0.0500

           -------------------------------------------------
          |                 G F N 2 - x T B                 |
           -------------------------------------------------

        Reference                      10.1021/acs.jctc.8b01176
      * Hamiltonian:
        H0-scaling (s, p, d)           1.850000    2.230000    2.230000
        zeta-weighting                 0.500000
      * Dispersion:
        s8                             2.700000
        a1                             0.520000
        a2                             5.000000
        s9                             5.000000
      * Repulsion:
        kExp                           1.500000    1.000000
        rExp                           1.000000
      * Coulomb:
        alpha                          2.000000
        third order                    shell-resolved
        anisotropic                    true
        a3                             3.000000
        a5                             4.000000
        cn-shift                       1.200000
        cn-exp                         4.000000
        max-rad                        5.000000

      * Solvation model:               ALPB
        Solvent                        thf
        Parameter file                 internal GFN2-xTB/ALPB
        Dielectric constant                7.6000E+00
        Reference state                gsolv [1 M gas/solution]
        Free energy shift                  5.3248E-03 Eh       3.3414E+00 kcal/mol
        Temperature                        2.9815E+02 K
        Density                            8.8300E-01 kg/L
        Solvent mass                       7.2106E+01 g/mol
        Interaction kernel             P16
        Born radius scaling (c1)           1.7311E+00
        Born radii integrator          GBOBC
        Born offset                        0.0000E+00 a0       0.0000E+00 AA
        H-bond correction              true
        Ion screening                  false
        Surface tension                    1.0000E-05 Eh       1.5569E+01 dyn/cm
        Grid points                               230 per atom
q/qsh data taken from xtbrestart
CAMM data taken from xtbrestart

          ...................................................
          :                      SETUP                      :
          :.................................................:
          :  # basis functions                 269          :
          :  # atomic orbitals                 267          :
          :  # shells                          159          :
          :  # electrons                       276          :
          :  max. iterations                   250          :
          :  Hamiltonian                  GFN2-xTB          :
          :  restarted?                       true          :
          :  GBSA solvation                   true          :
          :  PC potential                    false          :
          :  electronic temp.          300.0000000     K    :
          :  accuracy                    1.0000000          :
          :  -> integral cutoff          0.2500000E+02      :
          :  -> integral neglect         0.1000000E-07      :
          :  -> SCF convergence          0.1000000E-05 Eh   :
          :  -> wf. convergence          0.1000000E-03 e    :
          :  Broyden damping             0.4000000          :
          ...................................................

 iter      E             dE          RMSdq      gap      omega  full diag
   1   -152.7688399 -0.152769E+03  0.412E-05    0.84       0.0  T
   2   -152.7688399  0.438490E-09  0.755E-05    0.84     128.0  T
   3   -152.7688399 -0.499682E-09  0.260E-05    0.84     371.2  T

   *** convergence criteria satisfied after 3 iterations ***

         #    Occupation            Energy/Eh            Energy/eV
      -------------------------------------------------------------
         1        2.0000           -0.7744837             -21.0748
       ...           ...                  ...                  ...
       132        2.0000           -0.3577467              -9.7348
       133        2.0000           -0.3412190              -9.2850
       134        2.0000           -0.3223440              -8.7714
       135        2.0000           -0.3149813              -8.5711
       136        2.0000           -0.3117585              -8.4834
       137        2.0000           -0.3040087              -8.2725
       138        2.0000           -0.3022040              -8.2234 (HOMO)
       139        0.0000           -0.2713565              -7.3840 (LUMO)
       140                         -0.2432664              -6.6196
       141                         -0.2409534              -6.5567
       142                         -0.2000851              -5.4446
       143                         -0.1856995              -5.0531
       ...                                ...                  ...
       267                          3.7603705             102.3249
      -------------------------------------------------------------
                  HL-Gap            0.0308475 Eh            0.8394 eV
             Fermi-level           -0.2867140 Eh           -7.8019 eV

 SCC (total)                   0 d,  0 h,  0 min,  0.092 sec
 SCC setup                      ...        0 min,  0.003 sec (  2.787%)
 Dispersion                     ...        0 min,  0.003 sec (  3.302%)
 classical contributions        ...        0 min,  0.000 sec (  0.166%)
 integral evaluation            ...        0 min,  0.012 sec ( 12.678%)
 iterations                     ...        0 min,  0.037 sec ( 39.816%)
 molecular gradient             ...        0 min,  0.037 sec ( 40.430%)
 printout                       ...        0 min,  0.001 sec (  0.749%)

         :::::::::::::::::::::::::::::::::::::::::::::::::::::
         ::                     SUMMARY                     ::
         :::::::::::::::::::::::::::::::::::::::::::::::::::::
         :: total energy            -150.864023586604 Eh    ::
         :: total w/o Gsasa/hb      -150.819374727916 Eh    ::
         :: gradient norm              0.037367587984 Eh/a0 ::
         :: HOMO-LUMO gap              0.839402020307 eV    ::
         ::.................................................::
         :: SCC energy              -152.768839920342 Eh    ::
         :: -> isotropic ES            0.270532760418 Eh    ::
         :: -> anisotropic ES          0.019673545834 Eh    ::
         :: -> anisotropic XC          0.050952801068 Eh    ::
         :: -> dispersion             -0.141771077297 Eh    ::
         :: -> Gsolv                  -0.054814351365 Eh    ::
         ::    -> Gelec               -0.010165492678 Eh    ::
         ::    -> Gsasa               -0.047236294404 Eh    ::
         ::    -> Ghb                 -0.002737379728 Eh    ::
         ::    -> Gshift               0.005324815444 Eh    ::
         :: repulsion energy           1.896948903688 Eh    ::
         :: add. restraining           0.000000000000 Eh    ::
         :: total charge               0.000000000043 e     ::
         :::::::::::::::::::::::::::::::::::::::::::::::::::::

           -------------------------------------------------
          |                Property Printout                |
           -------------------------------------------------

    * Orbital Energies and Occupations

         #    Occupation            Energy/Eh            Energy/eV
      -------------------------------------------------------------
         1        2.0000           -0.7744837             -21.0748
       ...           ...                  ...                  ...
       126        2.0000           -0.3908266             -10.6349
       127        2.0000           -0.3830559             -10.4235
       128        2.0000           -0.3825571             -10.4099
       129        2.0000           -0.3793622             -10.3230
       130        2.0000           -0.3787384             -10.3060
       131        2.0000           -0.3653151              -9.9407
       132        2.0000           -0.3577467              -9.7348
       133        2.0000           -0.3412190              -9.2850
       134        2.0000           -0.3223440              -8.7714
       135        2.0000           -0.3149813              -8.5711
       136        2.0000           -0.3117585              -8.4834
       137        2.0000           -0.3040087              -8.2725
       138        2.0000           -0.3022040              -8.2234 (HOMO)
       139        0.0000           -0.2713565              -7.3840 (LUMO)
       140                         -0.2432664              -6.6196
       141                         -0.2409534              -6.5567
       142                         -0.2000851              -5.4446
       143                         -0.1856995              -5.0531
       144                         -0.1685111              -4.5854
       145                         -0.1516506              -4.1266
       146                         -0.1432933              -3.8992
       147                         -0.1265733              -3.4442
       148                         -0.1236654              -3.3651
       149                         -0.1217402              -3.3127
       ...                                ...                  ...
       267                          3.7603705             102.3249
      -------------------------------------------------------------
                  HL-Gap            0.0308475 Eh            0.8394 eV
             Fermi-level           -0.2867140 Eh           -7.8019 eV

     #   Z          covCN         q      C6AA      α(0)
     1   7 N        2.555    -0.120    23.638     7.221
     2   6 C        2.955     0.075    26.327     8.416
     3   6 C        2.918    -0.044    29.091     8.845
     4   6 C        2.923    -0.024    28.605     8.771
     5   6 C        2.915    -0.045    29.124     8.850
     6   6 C        2.892     0.047    26.939     8.510
     7   1 H        0.926     0.051     2.304     2.374
     8   1 H        0.926     0.053     2.286     2.365
     9   1 H        0.926     0.044     2.395     2.420
    10   6 C        2.954     0.070    26.423     8.431
    11   7 N        2.563    -0.122    23.670     7.226
    12   6 C        2.890     0.041    27.069     8.530
    13   6 C        2.915    -0.046    29.154     8.854
    14   6 C        2.922    -0.026    28.661     8.779
    15   6 C        2.918    -0.046    29.151     8.854
    16   1 H        0.926     0.043     2.411     2.428
    17   1 H        0.926     0.049     2.334     2.389
    18   1 H        0.926     0.076     2.019     2.222
    19  77 Ir       5.955    -0.169   389.722    36.507
    20   1 H        0.977     0.104     1.741     2.062
    21   5 B        2.630     0.401    16.050     6.768
    22   8 O        1.638    -0.410    21.046     6.192
    23   6 C        3.835     0.130    18.451     6.111
    24   6 C        3.755    -0.120    22.863     6.818
    25   1 H        0.925     0.052     2.293     2.368
    26   1 H        0.925     0.044     2.401     2.423
    27   1 H        0.925     0.050     2.317     2.380
    28   6 C        3.754    -0.109    22.638     6.784
    29   1 H        0.925     0.046     2.368     2.407
    30   1 H        0.925     0.041     2.435     2.440
    31   1 H        0.925     0.028     2.616     2.529
    32   6 C        3.840     0.131    18.437     6.108
    33   8 O        1.637    -0.405    20.955     6.179
    34   6 C        3.755    -0.120    22.855     6.817
    35   1 H        0.925     0.051     2.304     2.373
    36   1 H        0.925     0.044     2.393     2.419
    37   1 H        0.925     0.048     2.348     2.396
    38   6 C        3.754    -0.120    22.846     6.816
    39   1 H        0.925     0.047     2.361     2.403
    40   1 H        0.925     0.052     2.293     2.368
    41   1 H        0.925     0.044     2.397     2.421
    42   5 B        2.625     0.400    16.082     6.780
    43   8 O        1.637    -0.387    20.601     6.127
    44   6 C        3.837     0.128    18.472     6.114
    45   6 C        3.754    -0.126    22.968     6.834
    46   1 H        0.925     0.055     2.261     2.352
    47   1 H        0.925     0.055     2.257     2.350
    48   1 H        0.925     0.049     2.338     2.391
    49   6 C        3.755    -0.121    22.874     6.820
    50   1 H        0.925     0.048     2.351     2.398
    51   1 H        0.925     0.045     2.388     2.417
    52   1 H        0.925     0.052     2.299     2.371
    53   6 C        3.832     0.127    18.494     6.119
    54   8 O        1.637    -0.382    20.504     6.112
    55   6 C        3.755    -0.124    22.942     6.830
    56   1 H        0.925     0.054     2.271     2.357
    57   1 H        0.925     0.054     2.271     2.357
    58   1 H        0.925     0.047     2.356     2.400
    59   6 C        3.755    -0.123    22.912     6.825
    60   1 H        0.925     0.045     2.389     2.417
    61   1 H        0.925     0.051     2.306     2.375
    62   1 H        0.925     0.050     2.318     2.381
    63   5 B        2.624     0.401    16.080     6.780
    64   8 O        1.637    -0.380    20.482     6.109
    65   6 C        3.832     0.125    18.529     6.124
    66   6 C        3.755    -0.130    23.059     6.847
    67   1 H        0.925     0.058     2.225     2.332
    68   1 H        0.925     0.054     2.273     2.358
    69   1 H        0.925     0.049     2.329     2.387
    70   6 C        3.755    -0.129    23.037     6.844
    71   1 H        0.925     0.060     2.195     2.317
    72   1 H        0.925     0.050     2.325     2.385
    73   1 H        0.925     0.052     2.296     2.370
    74   6 C        3.829     0.127    18.493     6.119
    75   8 O        1.637    -0.382    20.520     6.115
    76   6 C        3.755    -0.123    22.924     6.827
    77   1 H        0.925     0.050     2.322     2.383
    78   1 H        0.925     0.053     2.281     2.362
    79   1 H        0.925     0.054     2.272     2.357
    80   6 C        3.755    -0.121    22.875     6.820
    81   1 H        0.925     0.040     2.451     2.448
    82   1 H        0.925     0.047     2.354     2.399
    83   1 H        0.925     0.054     2.274     2.358
    84   1 H        0.926     0.049     2.326     2.385
    85   1 H        0.926     0.046     2.365     2.405
    86   6 C        2.956    -0.058    29.436     8.899
    87   6 C        3.073    -0.071    29.677     8.932
    88   6 C        3.047    -0.046    29.104     8.848
    89   6 C        3.026    -0.057    29.396     8.893
    90   1 H        0.926     0.018     2.771     2.603
    91   7 N        2.904     0.136    18.929     6.462
    92   1 H        0.927     0.046     2.368     2.406
    93   1 H        0.926     0.034     2.533     2.489
    94   8 O        1.686    -0.331    19.540     5.968
    95  14 Si       3.414     0.551   104.294    20.043
    96   6 C        3.648    -0.217    25.204     7.213
    97   6 C        3.649    -0.218    25.220     7.215
    98   6 C        3.650    -0.218    25.201     7.211
    99   1 H        0.925     0.040     2.453     2.449
   100   1 H        0.925     0.047     2.360     2.403
   101   1 H        0.925     0.044     2.399     2.422
   102   1 H        0.925     0.041     2.431     2.438
   103   1 H        0.925     0.046     2.369     2.407
   104   1 H        0.925     0.047     2.352     2.398
   105   1 H        0.925     0.048     2.350     2.397
   106   1 H        0.925     0.047     2.353     2.399
   107   1 H        0.925     0.034     2.527     2.486

 Mol. C6AA /au·bohr⁶  :     120110.415294
 Mol. C8AA /au·bohr⁸  :    3250169.672489
 Mol. α(0) /au        :        539.506791


Wiberg/Mayer (AO) data.
largest (>0.10) Wiberg bond orders for each atom

 ---------------------------------------------------------------------------
     #   Z sym  total        # sym  WBO       # sym  WBO       # sym  WBO
 ---------------------------------------------------------------------------
     1   7 N    3.405 --     6 C    1.386     2 C    1.305    19 Ir   0.455
     2   6 C    3.979 --     3 C    1.346     1 N    1.305    10 C    1.096
     3   6 C    3.988 --     4 C    1.486     2 C    1.346     9 H    0.962
                             6 C    0.106
     4   6 C    3.985 --     3 C    1.486     5 C    1.377    84 H    0.969
     5   6 C    3.979 --     6 C    1.464     4 C    1.377     8 H    0.969
     6   6 C    3.978 --     5 C    1.464     1 N    1.386     7 H    0.957
                             3 C    0.106
     7   1 H    0.997 --     6 C    0.957
     8   1 H    0.996 --     5 C    0.969
     9   1 H    0.998 --     3 C    0.962
    10   6 C    3.979 --    15 C    1.351    11 N    1.300     2 C    1.096
    11   7 N    3.410 --    12 C    1.385    10 C    1.300    19 Ir   0.446
    12   6 C    3.973 --    13 C    1.459    11 N    1.385    18 H    0.948
                            15 C    0.105
    13   6 C    3.982 --    12 C    1.459    14 C    1.381    17 H    0.969
    14   6 C    3.982 --    15 C    1.481    13 C    1.381    85 H    0.969
    15   6 C    3.989 --    14 C    1.481    10 C    1.351    16 H    0.962
                            12 C    0.105
    16   1 H    0.998 --    15 C    0.962
    17   1 H    0.997 --    13 C    0.969
    18   1 H    0.994 --    12 C    0.948
    19  77 Ir   5.215 --    63 B    0.872    42 B    0.871    21 B    0.733
                            86 C    0.579    20 H    0.536     1 N    0.455
                            11 N    0.446
    20   1 H    0.987 --    19 Ir   0.536    86 C    0.350
    21   5 B    3.268 --    33 O    1.107    22 O    1.087    19 Ir   0.733
    22   8 O    2.188 --    21 B    1.087    23 C    0.945
    23   6 C    3.944 --    24 C    0.996    28 C    0.990    22 O    0.945
                            32 C    0.941
    24   6 C    3.994 --    23 C    0.996    26 H    0.984    27 H    0.983
                            25 H    0.983
    25   1 H    0.997 --    24 C    0.983
    26   1 H    0.997 --    24 C    0.984
    27   1 H    0.997 --    24 C    0.983
    28   6 C    3.997 --    23 C    0.990    31 H    0.985    29 H    0.984
                            30 H    0.984
    29   1 H    0.997 --    28 C    0.984
    30   1 H    0.998 --    28 C    0.984
    31   1 H    0.999 --    28 C    0.985
    32   6 C    3.941 --    38 C    0.997    34 C    0.991    33 O    0.941
                            23 C    0.941
    33   8 O    2.197 --    21 B    1.107    32 C    0.941
    34   6 C    3.994 --    32 C    0.991    36 H    0.984    37 H    0.982
                            35 H    0.981
    35   1 H    0.997 --    34 C    0.981
    36   1 H    0.997 --    34 C    0.984
    37   1 H    0.997 --    34 C    0.982
    38   6 C    3.994 --    32 C    0.997    41 H    0.984    39 H    0.983
                            40 H    0.983
    39   1 H    0.998 --    38 C    0.983
    40   1 H    0.997 --    38 C    0.983
    41   1 H    0.997 --    38 C    0.984
    42   5 B    3.331 --    54 O    1.108    43 O    1.107    19 Ir   0.871
    43   8 O    2.219 --    42 B    1.107    44 C    0.938
    44   6 C    3.938 --    45 C    0.997    49 C    0.990    53 C    0.939
                            43 O    0.938
    45   6 C    3.993 --    44 C    0.997    48 H    0.983    46 H    0.982
                            47 H    0.982
    46   1 H    0.997 --    45 C    0.982
    47   1 H    0.997 --    45 C    0.982
    48   1 H    0.997 --    45 C    0.983
    49   6 C    3.994 --    44 C    0.990    50 H    0.984    51 H    0.982
                            52 H    0.980
    50   1 H    0.997 --    49 C    0.984
    51   1 H    0.998 --    49 C    0.982
    52   1 H    0.997 --    49 C    0.980
    53   6 C    3.939 --    55 C    0.996    59 C    0.991    44 C    0.939
                            54 O    0.937
    54   8 O    2.226 --    42 B    1.108    53 C    0.937
    55   6 C    3.993 --    53 C    0.996    58 H    0.983    57 H    0.983
                            56 H    0.982
    56   1 H    0.997 --    55 C    0.982
    57   1 H    0.997 --    55 C    0.983
    58   1 H    0.997 --    55 C    0.983
    59   6 C    3.994 --    53 C    0.991    61 H    0.983    62 H    0.983
                            60 H    0.983
    60   1 H    0.998 --    59 C    0.983
    61   1 H    0.996 --    59 C    0.983
    62   1 H    0.997 --    59 C    0.983
    63   5 B    3.356 --    75 O    1.113    64 O    1.104    19 Ir   0.872
    64   8 O    2.223 --    63 B    1.104    65 C    0.940
    65   6 C    3.939 --    70 C    0.996    66 C    0.991    64 O    0.940
                            74 C    0.938
    66   6 C    3.993 --    65 C    0.991    69 H    0.983    68 H    0.983
                            67 H    0.979
    67   1 H    0.997 --    66 C    0.979
    68   1 H    0.997 --    66 C    0.983
    69   1 H    0.997 --    66 C    0.983
    70   6 C    3.992 --    65 C    0.996    72 H    0.984    73 H    0.982
                            71 H    0.982
    71   1 H    0.996 --    70 C    0.982
    72   1 H    0.996 --    70 C    0.984
    73   1 H    0.997 --    70 C    0.982
    74   6 C    3.936 --    76 C    0.996    80 C    0.991    65 C    0.938
                            75 O    0.938
    75   8 O    2.229 --    63 B    1.113    74 C    0.938
    76   6 C    3.993 --    74 C    0.996    77 H    0.983    78 H    0.982
                            79 H    0.981
    77   1 H    0.996 --    76 C    0.983
    78   1 H    0.997 --    76 C    0.982
    79   1 H    0.997 --    76 C    0.981
    80   6 C    3.995 --    74 C    0.991    81 H    0.984    83 H    0.983
                            82 H    0.983
    81   1 H    0.998 --    80 C    0.984
    82   1 H    0.997 --    80 C    0.983
    83   1 H    0.996 --    80 C    0.983
    84   1 H    0.997 --     4 C    0.969
    85   1 H    0.997 --    14 C    0.969
    86   6 C    3.943 --    88 C    1.469    87 C    1.308    19 Ir   0.579
                            20 H    0.350
    87   6 C    3.971 --    89 C    1.506    86 C    1.308    90 H    0.971
    88   6 C    3.930 --    86 C    1.469    91 N    1.217    92 H    0.965
                            89 C    0.132
    89   6 C    3.924 --    87 C    1.506    91 N    1.220    93 H    0.968
                            88 C    0.132
    90   1 H    0.999 --    87 C    0.971
    91   7 N    3.614 --    89 C    1.220    88 C    1.217    94 O    0.983
    92   1 H    0.998 --    88 C    0.965
    93   1 H    0.997 --    89 C    0.968
    94   8 O    2.206 --    95 Si   1.010    91 N    0.983
    95  14 Si   3.790 --    94 O    1.010    97 C    0.900    96 C    0.896
                            98 C    0.883
    96   6 C    3.982 --   101 H    0.989    99 H    0.984   100 H    0.983
                            95 Si   0.896
    97   6 C    3.983 --   103 H    0.989   102 H    0.984   104 H    0.983
                            95 Si   0.900
    98   6 C    3.982 --   107 H    0.996   106 H    0.986   105 H    0.986
                            95 Si   0.883
    99   1 H    0.998 --    96 C    0.984
   100   1 H    0.998 --    96 C    0.983
   101   1 H    0.998 --    96 C    0.989
   102   1 H    0.998 --    97 C    0.984
   103   1 H    0.998 --    97 C    0.989
   104   1 H    0.998 --    97 C    0.983
   105   1 H    0.998 --    98 C    0.986
   106   1 H    0.998 --    98 C    0.986
   107   1 H    0.998 --    98 C    0.996
 ---------------------------------------------------------------------------

Topologies differ in total number of bonds
Writing topology from bond orders to xtbtopo.mol

molecular dipole:
                 x           y           z       tot (Debye)
 q only:        0.087      -0.116       0.342
   full:       -1.089       0.144      -0.118       2.808
molecular quadrupole (traceless):
                xx          xy          yy          xz          yz          zz
 q only:       -1.268       0.413      -9.867       0.429       0.329      11.135
  q+dip:        2.400       2.099     -10.797      -0.750       4.905       8.397
   full:       -0.248       3.227     -10.300      -2.218       1.823      10.548


           -------------------------------------------------
          | TOTAL ENERGY             -150.864023586604 Eh   |
          | GRADIENT NORM               0.037367587984 Eh/α |
          | HOMO-LUMO GAP               0.839402020307 eV   |
           -------------------------------------------------

------------------------------------------------------------------------
 * finished run on 2022/01/14 at 13:54:27.542     
------------------------------------------------------------------------
 total:
 * wall-time:     0 d,  0 h,  0 min,  0.125 sec
 *  cpu-time:     0 d,  0 h,  0 min,  0.725 sec
 * ratio c/w:     5.815 speedup
 SCF:
 * wall-time:     0 d,  0 h,  0 min,  0.094 sec
 *  cpu-time:     0 d,  0 h,  0 min,  0.558 sec
 * ratio c/w:     5.946 speedup

