108
 energy: -154.736028122887 gnorm: 0.001900841875 xtb: 6.4.0 (f63f532)
N        -0.96509999999935   -2.11529999999966   -0.24089999999950
C        -2.24699999999993   -1.69840000000019   -0.36219999999918
C        -3.14040000000076   -2.36820000000020   -1.21200000000044
C        -2.70220000000098   -3.47559999999847   -1.93049999999882
C        -1.37779999999928   -3.89879999999987   -1.78760000000057
C        -0.54289999999957   -3.18669999999946   -0.93510000000121
H         0.49809999999992   -3.45630000000001   -0.78939999999974
H        -0.99570000000017   -4.76030000000033   -2.32770000000009
H        -4.16500000000001   -2.02890000000011   -1.31829999999997
C        -2.62130000000006   -0.50949999999959    0.44100000000106
N        -1.62599999999969    0.07330000000014    1.16019999999990
C        -1.89679999999986    1.15240000000042    1.91690000000026
C        -3.17230000000008    1.70329999999957    1.99649999999957
C        -4.20510000000068    1.11739999999955    1.26270000000013
C        -3.92610000000024    0.00250000000007    0.47819999999943
H        -4.71959999999939   -0.46420000000032   -0.09520000000037
H        -3.34629999999996    2.57510000000020    2.62070000000000
H        -1.04449999999994    1.57420000000006    2.43689999999990
Ir        0.42150000000000   -0.81649999999995    0.91329999999994
H         0.87260000000001   -2.23030000000002    1.54050000000002
B         0.50670000000000    0.41559999999972   -0.81539999999955
O         0.19500000000027   -0.04699999999984   -2.09150000000019
C         0.00649999999884    1.10039999999982   -2.95430000000000
C         0.49019999999922    0.74740000000126   -4.35779999999982
H         1.51610000000166    0.37380000000035   -4.33699999999993
H         0.44730000000027    1.62240000000026   -5.01670000000015
H        -0.14740000000002   -0.03389999999947   -4.78430000000005
C        -1.50119999999998    1.39559999999950   -2.96669999999922
H        -1.75369999999959    2.21460000000037   -3.64849999999996
H        -2.03199999999982    0.49449999999979   -3.28930000000000
H        -1.85169999999992    1.65209999999998   -1.96220000000034
C         0.84229999999938    2.20669999999966   -2.22039999999983
O         0.75199999999999    1.78259999999992   -0.83690000000002
C         2.32930000000070    2.18619999999989   -2.59900000000080
H         2.74129999999990    1.18499999999992   -2.45749999999991
H         2.48870000000008    2.51300000000008   -3.63179999999965
H         2.87199999999984    2.86269999999992   -1.93199999999997
C         0.28439999999893    3.62290000000008   -2.33660000000036
H        -0.72650000000023    3.69039999999994   -1.92909999999976
H         0.92129999999993    4.31480000000006   -1.77610000000009
H         0.26430000000013    3.94809999999992   -3.38320000000006
B         1.56299999999986    0.60960000000004    1.84840000000002
O         2.92780000000007    0.55229999999987    2.15019999999988
C         3.36330000000060    1.88659999999998    2.50259999999928
C         4.53140000000058    1.78590000000084    3.47740000000119
H         4.27910000000007    1.16090000000006    4.33689999999974
H         5.39390000000016    1.33789999999992    2.97340000000020
H         4.82389999999994    2.77870000000023    3.83819999999967
C         3.79699999999992    2.56849999999996    1.19669999999939
H         4.20019999999995    3.57090000000001    1.37680000000021
H         4.56739999999984    1.95559999999986    0.72109999999997
H         2.95240000000041    2.63260000000000    0.50540000000009
C         2.05039999999987    2.50089999999991    3.09320000000058
O         1.03749999999984    1.81619999999985    2.31910000000011
C         1.89100000000047    4.00449999999978    2.88649999999980
H         1.87290000000002    4.25439999999989    1.82409999999975
H         0.94939999999976    4.34260000000007    3.33169999999967
H         2.71079999999984    4.55149999999971    3.36629999999992
C         1.82470000000037    2.13200000000063    4.56520000000013
H         1.92609999999995    1.05330000000017    4.71319999999995
H         2.52610000000002    2.65280000000011    5.22540000000017
H         0.80630000000038    2.41579999999995    4.84899999999983
B         2.27819999999980   -1.33089999999994    0.17410000000005
O         2.89460000000023   -2.57739999999997    0.38449999999985
C         4.26930000000038   -2.48200000000040   -0.07209999999969
C         5.10900000000008   -2.05380000000001    1.14009999999998
H         4.76350000000003   -1.08740000000001    1.51750000000002
H         4.98049999999997   -2.79470000000007    1.93590000000038
H         6.17419999999986   -1.99289999999999    0.89300000000033
C         4.71950000000049   -3.84659999999997   -0.58470000000023
H         4.75280000000002   -4.56130000000004    0.24420000000005
H         5.72329999999957   -3.78370000000008   -1.02010000000006
H         4.03500000000002   -4.23600000000006   -1.34170000000025
C         4.16440000000096   -1.36220000000058   -1.16299999999938
O         3.08519999999972   -0.55029999999978   -0.65399999999991
C         5.40720000000031   -0.48869999999968   -1.31550000000104
H         6.27319999999960   -1.09009999999929   -1.61530000000006
H         5.23299999999998    0.26930000000018   -2.08589999999970
H         5.64270000000020    0.02649999999990   -0.38239999999956
C         3.71799999999848   -1.89830000000023   -2.53110000000031
H         2.82529999999884   -2.52160000000009   -2.42739999999993
H         3.46089999999987   -1.05249999999931   -3.17550000000037
H         4.50570000000029   -2.48290000000008   -3.01789999999990
H        -3.38500000000004   -4.00129999999932   -2.59310000000046
H        -5.21400000000014    1.52080000000003    1.29959999999988
C         0.23590000000028   -1.68139999999980    2.96030000000048
C        -0.90825014818289   -2.25363337679835    3.51138740420017
N         1.36628183025021   -1.64590105772965    3.67682537780415
C        -0.84547141508839   -2.78956977428149    4.79038651697960
H        -1.82766973651705   -2.32093790779736    2.94514928004017
C         1.45660379209746   -2.18667641339893    4.88973757541926
C         0.35515374308924   -2.79254484188835    5.48790543500253
H        -1.71923068590991   -3.26339690654940    5.22208039243487
C         2.85163354348916   -2.23010251272672    5.46579384149965
H         0.44235714141433   -3.29830924452337    6.44078697695476
C         3.17634164799166   -1.15412103286891    6.47240746078368
H         3.53944574901969   -2.13843766249261    4.62033342930429
H         3.00295620670747   -3.20584089100097    5.94139311284122
C         2.34638481261282   -0.90145964249045    7.56204112467954
C         4.35825892299951   -0.42550367635256    6.35439276999379
C         2.68414958773311    0.06040705549564    8.50270638855373
H         1.42934295654026   -1.46495534846094    7.67642842420991
C         4.69256733887315    0.54475707204668    7.28850815084818
H         5.02752620380908   -0.62828555873562    5.52700581423199
C         3.85573944899967    0.79025485290556    8.36635723385561
H         2.03114706562358    0.23579582226459    9.34855594652907
H         5.61018798686543    1.10778776525938    7.17456766107264
H         4.11705430755757    1.54264276312842    9.09968772893122
