108
 energy: -154.736623953176 gnorm: 0.079522109298 xtb: 6.4.0 (f63f532)
N        -0.96509999999935   -2.11529999999966   -0.24089999999950
C        -2.24699999999993   -1.69840000000019   -0.36219999999918
C        -3.14040000000076   -2.36820000000020   -1.21200000000044
C        -2.70220000000098   -3.47559999999847   -1.93049999999882
C        -1.37779999999928   -3.89879999999987   -1.78760000000057
C        -0.54289999999957   -3.18669999999946   -0.93510000000121
H         0.49809999999992   -3.45630000000001   -0.78939999999974
H        -0.99570000000017   -4.76030000000033   -2.32770000000009
H        -4.16500000000001   -2.02890000000011   -1.31829999999997
C        -2.62130000000006   -0.50949999999959    0.44100000000106
N        -1.62599999999969    0.07330000000014    1.16019999999990
C        -1.89679999999986    1.15240000000042    1.91690000000026
C        -3.17230000000008    1.70329999999957    1.99649999999957
C        -4.20510000000068    1.11739999999955    1.26270000000013
C        -3.92610000000024    0.00250000000007    0.47819999999943
H        -4.71959999999939   -0.46420000000032   -0.09520000000037
H        -3.34629999999996    2.57510000000020    2.62070000000000
H        -1.04449999999994    1.57420000000006    2.43689999999990
Ir        0.42150000000000   -0.81649999999995    0.91329999999994
H         0.87260000000001   -2.23030000000002    1.54050000000002
B         0.50670000000000    0.41559999999972   -0.81539999999955
O         0.19500000000027   -0.04699999999984   -2.09150000000019
C         0.00649999999884    1.10039999999982   -2.95430000000000
C         0.49019999999922    0.74740000000126   -4.35779999999982
H         1.51610000000166    0.37380000000035   -4.33699999999993
H         0.44730000000027    1.62240000000026   -5.01670000000015
H        -0.14740000000002   -0.03389999999947   -4.78430000000005
C        -1.50119999999998    1.39559999999950   -2.96669999999922
H        -1.75369999999959    2.21460000000037   -3.64849999999996
H        -2.03199999999982    0.49449999999979   -3.28930000000000
H        -1.85169999999992    1.65209999999998   -1.96220000000034
C         0.84229999999938    2.20669999999966   -2.22039999999983
O         0.75199999999999    1.78259999999992   -0.83690000000002
C         2.32930000000070    2.18619999999989   -2.59900000000080
H         2.74129999999990    1.18499999999992   -2.45749999999991
H         2.48870000000008    2.51300000000008   -3.63179999999965
H         2.87199999999984    2.86269999999992   -1.93199999999997
C         0.28439999999893    3.62290000000008   -2.33660000000036
H        -0.72650000000023    3.69039999999994   -1.92909999999976
H         0.92129999999993    4.31480000000006   -1.77610000000009
H         0.26430000000013    3.94809999999992   -3.38320000000006
B         1.56299999999986    0.60960000000004    1.84840000000002
O         2.92780000000007    0.55229999999987    2.15019999999988
C         3.36330000000060    1.88659999999998    2.50259999999928
C         4.53140000000058    1.78590000000084    3.47740000000119
H         4.27910000000007    1.16090000000006    4.33689999999974
H         5.39390000000016    1.33789999999992    2.97340000000020
H         4.82389999999994    2.77870000000023    3.83819999999967
C         3.79699999999992    2.56849999999996    1.19669999999939
H         4.20019999999995    3.57090000000001    1.37680000000021
H         4.56739999999984    1.95559999999986    0.72109999999997
H         2.95240000000041    2.63260000000000    0.50540000000009
C         2.05039999999987    2.50089999999991    3.09320000000058
O         1.03749999999984    1.81619999999985    2.31910000000011
C         1.89100000000047    4.00449999999978    2.88649999999980
H         1.87290000000002    4.25439999999989    1.82409999999975
H         0.94939999999976    4.34260000000007    3.33169999999967
H         2.71079999999984    4.55149999999971    3.36629999999992
C         1.82470000000037    2.13200000000063    4.56520000000013
H         1.92609999999995    1.05330000000017    4.71319999999995
H         2.52610000000002    2.65280000000011    5.22540000000017
H         0.80630000000038    2.41579999999995    4.84899999999983
B         2.27819999999980   -1.33089999999994    0.17410000000005
O         2.89460000000023   -2.57739999999997    0.38449999999985
C         4.26930000000038   -2.48200000000040   -0.07209999999969
C         5.10900000000008   -2.05380000000001    1.14009999999998
H         4.76350000000003   -1.08740000000001    1.51750000000002
H         4.98049999999997   -2.79470000000007    1.93590000000038
H         6.17419999999986   -1.99289999999999    0.89300000000033
C         4.71950000000049   -3.84659999999997   -0.58470000000023
H         4.75280000000002   -4.56130000000004    0.24420000000005
H         5.72329999999957   -3.78370000000008   -1.02010000000006
H         4.03500000000002   -4.23600000000006   -1.34170000000025
C         4.16440000000096   -1.36220000000058   -1.16299999999938
O         3.08519999999972   -0.55029999999978   -0.65399999999991
C         5.40720000000031   -0.48869999999968   -1.31550000000104
H         6.27319999999960   -1.09009999999929   -1.61530000000006
H         5.23299999999998    0.26930000000018   -2.08589999999970
H         5.64270000000020    0.02649999999990   -0.38239999999956
C         3.71799999999848   -1.89830000000023   -2.53110000000031
H         2.82529999999884   -2.52160000000009   -2.42739999999993
H         3.46089999999987   -1.05249999999931   -3.17550000000037
H         4.50570000000029   -2.48290000000008   -3.01789999999990
H        -3.38500000000004   -4.00129999999932   -2.59310000000046
H        -5.21400000000014    1.52080000000003    1.29959999999988
C         0.23590000000028   -1.68139999999980    2.96030000000048
C        -0.90825014818289   -2.25363337679835    3.51138740420017
N         1.36628183025021   -1.64590105772965    3.67682537780415
C        -0.84547141508839   -2.78956977428149    4.79038651697960
H        -1.82766973651705   -2.32093790779736    2.94514928004017
C         1.45660379209746   -2.18667641339893    4.88973757541926
C         0.35515374308924   -2.79254484188835    5.48790543500253
H        -1.71923068590991   -3.26339690654940    5.22208039243487
C         2.85163354348916   -2.23010251272672    5.46579384149965
H         0.44235714141433   -3.29830924452337    6.44078697695476
C         3.17634164799166   -1.15412103286891    6.47240746078368
H         3.53944574901969   -2.13843766249261    4.62033342930429
H         3.00295620670747   -3.20584089100097    5.94139311284122
C         2.34638481261282   -0.90145964249045    7.56204112467954
C         4.35825892299951   -0.42550367635256    6.35439276999379
C         2.68414958773311    0.06040705549564    8.50270638855373
H         1.42934295654026   -1.46495534846094    7.67642842420991
C         4.69256733887315    0.54475707204668    7.28850815084818
H         5.02752620380908   -0.62828555873562    5.52700581423199
C         3.85573944899967    0.79025485290556    8.36635723385561
H         2.03114706562358    0.23579582226459    9.34855594652907
H         5.61018798686543    1.10778776525938    7.17456766107264
H         4.11705430755757    1.54264276312842    9.09968772893122
108
 energy: -154.743394904170 gnorm: 0.050677375365 xtb: 6.4.0 (f63f532)
N        -0.96262383219173   -2.10202752952949   -0.25153752286460
C        -2.24133296414008   -1.69197077031388   -0.36411398430034
C        -3.13611451890310   -2.36444790920431   -1.20571656523844
C        -2.70533842682848   -3.46545638980108   -1.92152731432099
C        -1.38475955754646   -3.88410135025577   -1.78262122116896
C        -0.55473584016342   -3.16965626117162   -0.94112903184979
H         0.47931648385719   -3.44884738602966   -0.79140979682777
H        -1.00790967009314   -4.74354149765896   -2.31847970522255
H        -4.15662786793282   -2.02905845256572   -1.30976462969249
C        -2.61161347101214   -0.51556030345354    0.43584772595148
N        -1.61842060703392    0.06311692334568    1.14972531431445
C        -1.89700826054237    1.13631494743633    1.89552344881071
C        -3.16367975710664    1.68584452063055    1.98277858548116
C        -4.19580916173977    1.10157090902339    1.25616122553905
C        -3.91449990460546   -0.00471534746132    0.47586521194973
H        -4.70603944927194   -0.46775927341842   -0.09314121682213
H        -3.33851246105849    2.54946354823867    2.60907826967791
H        -1.05372440517235    1.55529776170298    2.42406334190133
Ir        0.42150000000000   -0.81649999999995    0.91329999999994
H         0.87260000000001   -2.23030000000002    1.54050000000002
B         0.49303780475563    0.42629150054014   -0.78972415919200
O         0.17588295073063   -0.03412683211555   -2.06138887386906
C         0.00992438543379    1.09678730058613   -2.94317704973094
C         0.48865287377347    0.74663705491234   -4.34809423180338
H         1.50774288322329    0.37028597876986   -4.32677670560748
H         0.44339954670058    1.62189097265359   -4.99682305155398
H        -0.14998665566218   -0.02965157816505   -4.76815790920865
C        -1.49444930986440    1.39826653154119   -2.96933730574782
H        -1.73351326579726    2.21095984121167   -3.65360391510895
H        -2.02416787504973    0.50079595266974   -3.28889107142373
H        -1.84106376553745    1.65310335756707   -1.96767406924201
C         0.83130567181647    2.20769379329402   -2.21315264275591
O         0.75491355436942    1.78232930534370   -0.83566166963606
C         2.31378549667808    2.19129067842398   -2.60053039217886
H         2.71802671409374    1.19223561088262   -2.44998892319379
H         2.46536561071103    2.51243736442402   -3.63039887977176
H         2.85577003397707    2.86600122147083   -1.93893299939131
C         0.27900208718476    3.62336177357978   -2.34027476223222
H        -0.72421099207391    3.69173759261809   -1.92761952591219
H         0.91843972297493    4.30699570146732   -1.78338305208164
H         0.26103672196266    3.93575443081535   -3.38450345939530
B         1.57048317109003    0.60980117229504    1.86432737448592
O         2.93232100746817    0.56793452477363    2.12766259601169
C         3.36351737554460    1.88924026081890    2.50557711974268
C         4.53197205568871    1.79533485387439    3.47646010415666
H         4.27297480247634    1.17080838498414    4.32660609109745
H         5.38718605611082    1.34894502819259    2.97045968060445
H         4.81446791671295    2.78591456425811    3.83200525586688
C         3.79826542410569    2.57811708082194    1.20760385344440
H         4.19895597110015    3.57397579096330    1.39220730072514
H         4.56270667768700    1.96667479815222    0.73123388553802
H         2.94999619440892    2.62939828900909    0.52643515069035
C         2.05324259391985    2.50378259522366    3.08843706238596
O         1.04210509067089    1.80399088907777    2.33664742749999
C         1.89162682006113    4.00604631859849    2.88806564339442
H         1.86608819104690    4.25028789514604    1.82986876360787
H         0.95442870459577    4.33508292790989    3.33538044792431
H         2.71196581948880    4.54249827673220    3.36432926215499
C         1.83438517751225    2.13820878771600    4.56054447580541
H         1.93995077587011    1.06268035348323    4.69749841392871
H         2.53531677424315    2.65809330367334    5.21089134936537
H         0.81981987111413    2.41579666273556    4.84701216931754
B         2.27819999999980   -1.33089999999994    0.17410000000005
O         2.89933254533073   -2.56284157357572    0.38521595976241
C         4.26517205668550   -2.48248411172791   -0.07855518039753
C         5.10844184637407   -2.05751556036741    1.12782075213469
H         4.74855048672422   -1.09976131847815    1.50117676268024
H         4.97610678098651   -2.79423504714449    1.91902548293124
H         6.16662365086386   -1.99646791379357    0.87638551576920
C         4.72111838565016   -3.84439020011876   -0.58870631157408
H         4.75054323026779   -4.54863063867649    0.24144133655407
H         5.71912869864183   -3.77256323625992   -1.02036367400308
H         4.03601974736400   -4.23252276837123   -1.33767158510388
C         4.16589661231485   -1.35928856293545   -1.15844622633301
O         3.07248102215195   -0.56339075356029   -0.66348942865622
C         5.40890004552396   -0.49064138970167   -1.31605958381936
H         6.26527347410936   -1.09630126004094   -1.61166411536053
H         5.23053885272572    0.26042488942518   -2.08442295074616
H         5.63581666415637    0.02361951804824   -0.38675296004343
C         3.72938613521684   -1.89890900415111   -2.52667343919465
H         2.83750933544957   -2.51461364116102   -2.41777910852977
H         3.47164689941241   -1.05762622326916   -3.16868640020249
H         4.51951819317419   -2.47595777954092   -3.00432797244993
H        -3.38438229379201   -3.99016399070479   -2.57978481299738
H        -5.19978349044503    1.50298100897850    1.29668421780865
C         0.23590000000028   -1.68139999999978    2.96030000000047
C        -0.91452243127915   -2.24794491784448    3.51196218436117
N         1.36113356876541   -1.64729647986636    3.67987383009566
C        -0.85375387824724   -2.78061816402996    4.79158013240540
H        -1.83339813926923   -2.31216644658319    2.94561188265711
C         1.44855513560961   -2.18168051891466    4.88813697949027
C         0.34632289410660   -2.78454302307430    5.48773721140251
H        -1.72790366517159   -3.25073275661744    5.22392402117164
C         2.84232546072908   -2.22669610950751    5.46746403680437
H         0.43260533977915   -3.28805942004402    6.44037028646181
C         3.17030033747700   -1.15228897062084    6.47340475678380
H         3.53058356022968   -2.13892432810030    4.62441962470162
H         2.99071376358832   -3.20172606808891    5.94354244444736
C         2.34304082481131   -0.89727047161536    7.56092736955773
C         4.35264827767340   -0.42909146012823    6.35619114797727
C         2.68241653759319    0.06196934161911    8.49980951010842
H         1.42627295357987   -1.45711425722565    7.67550380504728
C         4.68952145603284    0.53879941282204    7.28807494026526
H         5.02039226009019   -0.63388747693667    5.53096154834091
C         3.85445387305222    0.78746261693649    8.36402369307032
H         2.03063293529030    0.23952698398873    9.34398512725340
H         5.60764180683714    1.09813328351915    7.17432451552431
H         4.11719863967157    1.53849197464970    9.09576974767855
108
 energy: -154.745356866139 gnorm: 0.040057836983 xtb: 6.4.0 (f63f532)
N        -0.95581931868758   -2.09505393155045   -0.26235700195819
C        -2.23321205794184   -1.68740155975822   -0.36780092108129
C        -3.13377961808331   -2.36067684541725   -1.20231059577514
C        -2.71096481612370   -3.45838977997916   -1.91905083566331
C        -1.39013984060519   -3.87663683328256   -1.78494661603836
C        -0.56015769130107   -3.16144010028103   -0.94968623089639
H         0.47280417779784   -3.44369530894292   -0.80755891779137
H        -1.01889216138685   -4.73539834338535   -2.31926846195942
H        -4.15347497413567   -2.02746140219337   -1.29719235981711
C        -2.59867885172624   -0.52060685955980    0.42860217317765
N        -1.60725165377765    0.05296587431956    1.14423340782700
C        -1.89277239054600    1.12068803201423    1.88575034568716
C        -3.15467037185854    1.67085202677626    1.97579472183265
C        -4.18792613995828    1.08730214870866    1.24980029914403
C        -3.90230741712001   -0.01188641852249    0.46932937278036
H        -4.69127661636586   -0.47625652051521   -0.09763143488110
H        -3.32988339030362    2.53043333134952    2.60190522918019
H        -1.05475029343139    1.54459304231188    2.41567973407242
Ir        0.42150000000000   -0.81649999999995    0.91329999999994
H         0.87260000000001   -2.23030000000002    1.54050000000002
B         0.49481806923656    0.44035446689727   -0.76527760341969
O         0.15585272982050   -0.02249055736752   -2.02915932481989
C         0.00396848943623    1.09454619266996   -2.92248451947345
C         0.48732867340365    0.73845119436400   -4.32476574343265
H         1.50278171791873    0.35887501710880   -4.30455643354676
H         0.44154103813499    1.61641874688747   -4.96409277530336
H        -0.15510022744962   -0.03212963457555   -4.74275858600884
C        -1.49892766406919    1.40419692732411   -2.96814006518971
H        -1.72028660215738    2.21260773184492   -3.65831585919331
H        -2.02727549525720    0.50856450516746   -3.28813371024312
H        -1.84809581271605    1.66245301785220   -1.97059469831459
C         0.82168023270405    2.20904723891016   -2.20065857712938
O         0.75750378291119    1.78986596420255   -0.82743904305005
C         2.30143276946106    2.19770971680827   -2.59887765626090
H         2.70270023253092    1.20036696545609   -2.44062978228179
H         2.43960298535597    2.51080042931655   -3.62983097979416
H         2.84334054025934    2.87721921289668   -1.94592924058961
C         0.26617706664601    3.62286177984590   -2.33800971438205
H        -0.73275729462282    3.69644086844892   -1.92158219819732
H         0.91043361831962    4.30550614384948   -1.79078076162242
H         0.24833793728962    3.91816359497440   -3.38364593274573
B         1.58151533251497    0.61894102900230    1.86016077843239
O         2.93540950984358    0.58449746973252    2.10645061963573
C         3.36338926059783    1.89574716681287    2.50207142862183
C         4.52863869260502    1.80361256577485    3.47698696855251
H         4.26909087230412    1.17892819598044    4.32329579638276
H         5.38178879211150    1.36211170880077    2.96961177583717
H         4.80114522792105    2.79487705336169    3.82753443704258
C         3.80092870754156    2.59832528187376    1.21239538068725
H         4.19701482004459    3.59047931197609    1.40547174888062
H         4.56497793106805    1.99033868273011    0.73590083940003
H         2.95097763242679    2.64286997197594    0.53611698495248
C         2.05355024370976    2.50207843628935    3.08719129172021
O         1.04434256044745    1.79283736377065    2.35079543244849
C         1.88926486850450    4.00414150006707    2.88711794036302
H         1.85468174769192    4.24787808952991    1.83131172314038
H         0.95709207656649    4.32727811084151    3.34216657232673
H         2.71298450398752    4.53226437679196    3.35863765130609
C         1.84966967738873    2.14214076326689    4.56360997842406
H         1.96053333082335    1.06814340336270    4.69299922109034
H         2.55289270164426    2.66524142411851    5.20344347793384
H         0.83733198062727    2.41430953698659    4.85421335332868
B         2.27819999999980   -1.33089999999994    0.17410000000004
O         2.90075426872847   -2.55103486985242    0.39069262445766
C         4.25738875463545   -2.47944415719014   -0.08103463028022
C         5.10858504598408   -2.05814630767802    1.12033798792901
H         4.74006761829115   -1.10550183348295    1.49254690728203
H         4.97778553399288   -2.79541558257039    1.90758285429791
H         6.16094017078174   -1.99532623347400    0.86070103385604
C         4.71469678418377   -3.84049284436803   -0.59388406364219
H         4.74672368815397   -4.53800390470433    0.23790470921621
H         5.70875698474818   -3.75839221333961   -1.02389490648232
H         4.03030606231581   -4.23098954709776   -1.33860083922673
C         4.16076739199943   -1.35767659003459   -1.15823444249084
O         3.05954498790675   -0.57215706327965   -0.67243453030343
C         5.40468347927360   -0.48985346375614   -1.31093317764211
H         6.25345445790711   -1.10248517472566   -1.60097127071624
H         5.22762981317743    0.25457902753566   -2.08199494646420
H         5.62732801117796    0.02618087841257   -0.38442830318931
C         3.73947664206221   -1.90093396513131   -2.53048339502453
H         2.84901834344938   -2.51433323949467   -2.42045989874700
H         3.48494796220853   -1.06168575153347   -3.17283797071115
H         4.53615446766698   -2.47322461649001   -2.99510549701002
H        -3.39158944219476   -3.98393001781768   -2.57039167921998
H        -5.19048050977305    1.48429978850420    1.29474742537057
C         0.23590000000028   -1.68139999999975    2.96030000000045
C        -0.92266478539427   -2.23662344688588    3.51185394668628
N         1.35590138933815   -1.65002564013685    3.68363215252505
C        -0.86780179477266   -2.76336618646230    4.79399436342431
H        -1.84073467498649   -2.29519591457342    2.94417731359738
C         1.43713543955287   -2.17644032044381    4.89056290022531
C         0.33055991581085   -2.77122729518464    5.49209326379086
H        -1.74568096703788   -3.22509491577685    5.22684968353513
C         2.82917437461211   -2.22694494523538    5.47330805066518
H         0.41248253213863   -3.27081569020185    6.44628868577531
C         3.16011310007333   -1.15193931597766    6.47611836614851
H         3.51862746087525   -2.14507153936393    4.63178650235548
H         2.97074178546497   -3.20112782485014    5.95200935655264
C         2.33366263857214   -0.89098879721110    7.56134603141620
C         4.34509640284618   -0.43531128335293    6.35791100465397
C         2.67697371341400    0.06704247913163    8.49853016400236
H         1.41453085107509   -1.44521389732057    7.67584023088903
C         4.68671590612478    0.53093448798964    7.28821651014554
H         5.01108280568288   -0.64371010204180    5.53345905504976
C         3.85274052369137    0.78555294325249    8.36296048136340
H         2.02603472894708    0.24913981859385    9.34134094734318
H         5.60766658644162    1.08419174996888    7.17470453795559
H         4.11890143165721    1.53542892048424    9.09335758694459
108
 energy: -154.746198669333 gnorm: 0.039748102244 xtb: 6.4.0 (f63f532)
N        -0.94783987291992   -2.09416798779585   -0.27346486193769
C        -2.22625351065523   -1.68697941660942   -0.37221234684198
C        -3.13270574304138   -2.36112349068059   -1.20127079883551
C        -2.71583833996647   -3.45853727957030   -1.91997796257494
C        -1.39255673920919   -3.87595079075561   -1.79388367057529
C        -0.55820922939775   -3.15941447989444   -0.96404414193804
H         0.47516703017053   -3.44455867283271   -0.82849699684395
H        -1.02580029436095   -4.73535892041627   -2.32903631810884
H        -4.15288777515349   -2.02747112291230   -1.28797942900945
C        -2.58870660315579   -0.52428528877003    0.42400852530225
N        -1.59733723840813    0.04819447364620    1.14158308763237
C        -1.88637656151695    1.11481315175158    1.88218138731958
C        -3.14818973525703    1.66330597192934    1.97426170388228
C        -4.18259240784899    1.07867926737385    1.24769441456026
C        -3.89361269919042   -0.01671692303673    0.46511758855689
H        -4.67999562947058   -0.48183150103583   -0.10447183244473
H        -3.32452154589456    2.52030845456661    2.60226826527474
H        -1.05162569849851    1.54005589708840    2.41669428511178
Ir        0.42150000000000   -0.81649999999995    0.91329999999994
H         0.87260000000001   -2.23030000000002    1.54050000000002
B         0.48081711876720    0.45726675565358   -0.74428517227948
O         0.13293758072309   -0.01234611863838   -2.00309810798002
C        -0.00681149262190    1.09530374795708   -2.90389486666532
C         0.48374885286383    0.72826793045435   -4.30173085471995
H         1.49678769438558    0.34325920850555   -4.27552956495433
H         0.44438940295638    1.60579723561632   -4.94126123429850
H        -0.16168837663016   -0.03982575945912   -4.71900177205584
C        -1.50869996613651    1.41236185785192   -2.96607335574022
H        -1.71569339216530    2.21813212619459   -3.66300761048572
H        -2.03721682996792    0.51761325201008   -3.28732094170398
H        -1.86611596639394    1.67718250075183   -1.97340549251897
C         0.81125833660582    2.21332448576558   -2.18773933625766
O         0.75660780882000    1.80167232090737   -0.81531770168385
C         2.28935081560211    2.20419585039950   -2.59574051169246
H         2.69308728245647    1.20905825261477   -2.43069615613277
H         2.41752992421829    2.50857675935948   -3.63008160679441
H         2.83241292643373    2.89163825316237   -1.95240984120680
C         0.25324241452490    3.62633593837131   -2.33357095657704
H        -0.74341685774604    3.70341422572105   -1.91288795474866
H         0.90091521518774    4.31394484774481   -1.79695523199211
H         0.23043516626757    3.90834052961262   -3.38242465906417
B         1.58474389871894    0.61583496759924    1.87308758283233
O         2.94039647818060    0.59516440955005    2.08859942308381
C         3.36345144030807    1.90204105430060    2.49739693219930
C         4.52920189297426    1.81003403793415    3.47329506177256
H         4.27167442357889    1.18296698406025    4.31804559672569
H         5.38446446854118    1.37419224836509    2.96533890359010
H         4.79431505330916    2.80266060022915    3.82467148922035
C         3.80151380922245    2.61992640981724    1.21493844181054
H         4.19176504784210    3.61168769710548    1.41849809060734
H         4.57006334921072    2.01962046854393    0.73603909125699
H         2.95235544642217    2.66486288315335    0.53823692183668
C         2.05360936756373    2.50108500051291    3.08991884727097
O         1.04362881768425    1.78243614517006    2.36794479734315
C         1.88240814632539    4.00295891861830    2.88763442898215
H         1.83719075789604    4.24522738248200    1.83195924133945
H         0.95437048495994    4.32408309706702    3.35196715641792
H         2.71065123128600    4.53053777409131    3.35081701880708
C         1.86474759580594    2.14603074836215    4.57058382984680
H         1.98185836579262    1.07290749548365    4.70014824209415
H         2.57190210590531    2.67492825567634    5.20045957390684
H         0.85376919770926    2.41402796676666    4.86842548270934
B         2.27819999999981   -1.33089999999994    0.17410000000003
O         2.90169926425883   -2.54509423071809    0.39708956898070
C         4.25220591468230   -2.47739599455371   -0.08239224864894
C         5.11078567531405   -2.05751672634366    1.11525927170786
H         4.73985004756741   -1.10714250020528    1.49032468862392
H         4.98468765116087   -2.79743441838780    1.90043191819779
H         6.16047540212365   -1.99177275921049    0.84892330695253
C         4.70794411854052   -3.83922766223931   -0.59741064780328
H         4.74421433313236   -4.53526895523305    0.23501856669813
H         5.69978311907871   -3.75233158281737   -1.03036107166090
H         4.02175304817909   -4.23096291755267   -1.33950059702505
C         4.15588237466918   -1.35625939217083   -1.16002129001752
O         3.04917398586239   -0.57622039935072   -0.68220496455119
C         5.39961029376744   -0.48611451217119   -1.30658131656151
H         6.24813721977378   -1.10199152488163   -1.58906344821917
H         5.22664488471592    0.25468255816552   -2.08170133783237
H         5.61642765205682    0.03271828208444   -0.38053500798073
C         3.74815827539722   -1.90252658273858   -2.53626751365900
H         2.85866667801197   -2.51768353508476   -2.43203934670192
H         3.49862996924904   -1.06459473532153   -3.18196054199267
H         4.55188213204429   -2.47279752157507   -2.98992355091820
H        -3.40031810637683   -3.98440286927392   -2.56654973195939
H        -5.18584466434932    1.47239909704400    1.29499914752733
C         0.23590000000028   -1.68139999999970    2.96030000000043
C        -0.93064297324081   -2.22216364688314    3.51109827002019
N         1.35252968803026   -1.65485803637050    3.68656145875645
C        -0.88469754166357   -2.74085688915397    4.79698527148619
H        -1.84755958660316   -2.27466339603492    2.94108320394826
C         1.42491419036870   -2.17353841820772    4.89621453225237
C         0.31116960345884   -2.75515355655382    5.49913932891880
H        -1.76867510616052   -3.19098156023742    5.23014633076518
C         2.81456393548057   -2.23087995611133    5.48334906902023
H         0.38564547033630   -3.24891133767392    6.45680715426609
C         3.14852225366119   -1.15306275403387    6.48121955835209
H         3.50644404312708   -2.15717678790372    4.64309672550998
H         2.94763914968186   -3.20370648172448    5.96684095155387
C         2.32154110356388   -0.88339020086209    7.56387697673080
C         4.33723386911552   -0.44309521707455    6.36095555253867
C         2.66970149544225    0.07514123793084    8.49874312565307
H         1.39848561127080   -1.43108251192875    7.67828722592630
C         4.68414661693967    0.52298651758339    7.28939867004659
H         5.00176842439096   -0.65676316343009    5.53671265893664
C         3.85084023561783    0.78512282666706    8.36305750514755
H         2.01881128019208    0.26386183404464    9.34007111454293
H         5.60895682961100    1.06962252673192    7.17571043774505
H         4.12149164733508    1.53431016934988    9.09231747304449
108
 energy: -154.747233894145 gnorm: 0.039862804066 xtb: 6.4.0 (f63f532)
N        -0.93660887627672   -2.09542410161361   -0.29026674293357
C        -2.21724551935861   -1.68871101795531   -0.37925397008869
C        -3.13113174030086   -2.36486293752011   -1.20096832773576
C        -2.72122471648704   -3.46223749721323   -1.92295687895960
C        -1.39442562055277   -3.87772406444970   -1.80934748028869
C        -0.55286393607279   -3.15942487506612   -0.98676050678176
H         0.48261601566418   -3.44528152432247   -0.86335212810436
H        -1.03287273952548   -4.73721362845542   -2.34830237446170
H        -4.15267514086097   -2.03104048333515   -1.27614594259433
C        -2.57642568335149   -0.52910175642249    0.41869077436205