108
 energy: -154.754646672220 gnorm: 0.000284648209 xtb: 6.4.0 (f63f532)
N        -0.91212371074750   -2.06037854852734   -0.35184085545715
C        -2.18651849453904   -1.64212953882924   -0.47967809862149
C        -3.10153865932793   -2.35394531881622   -1.26901549270159
C        -2.68991868133698   -3.47498363942598   -1.95364327723551
C        -1.36082384310658   -3.87880065387437   -1.83380645719249
C        -0.52528905291782   -3.14474794781588   -1.01916684220947
H         0.50802572316116   -3.43026553052193   -0.87979898123863
H        -0.99356349912557   -4.74757879916974   -2.35548297675395
H        -4.12867165179836   -2.03508707540424   -1.33825947420051
C        -2.54140648671981   -0.42842550421446    0.23930102191427
N        -1.60536877770214    0.07462732771359    1.07705891931293
C        -1.89565081315351    1.18194864761177    1.76089033402590
C        -3.09716074518238    1.84959210732907    1.65778554508727
C        -4.06236723122667    1.35617552391392    0.78091570384542
C        -3.77448004826445    0.21409119150816    0.06728860489348
H        -4.49969232428281   -0.17493278360679   -0.62826468459309
H        -3.28043636764371    2.73403286758067    2.24642441082862
H        -1.11169071007352    1.53546024914345    2.41305099461857
Ir        0.42150000000004   -0.81649999999998    0.91329999999984
H         0.87259999999999   -2.23030000000008    1.54050000000005
B         0.37778469445753    0.63273507520837   -0.58966721689569
O        -0.21391558968756    0.31536734304493   -1.79857255935485
C        -0.33889644922263    1.48866145554413   -2.60949509207861
C        -0.00860004878968    1.14377247767815   -4.05967462205456
H         0.94916201340299    0.63807010058496   -4.12407485870023
H         0.01065822558761    2.04627601530691   -4.66517695805139
H        -0.77236451281377    0.47480014202973   -4.44930162568237
C        -1.80195538154600    1.94650135378200   -2.52047810332894
H        -1.98203396846511    2.80908954160586   -3.15520416798999
H        -2.44350621873106    1.12865141639343   -2.84297105887273
H        -2.05756278839775    2.18893959401057   -1.49094492049223
C         0.65089626236375    2.48565161175722   -1.92112673725808
O         0.75161313681172    1.95685602136763   -0.59145643622428
C         2.05830899794988    2.42593857509418   -2.52715229288080
H         2.42188756458776    1.40239521574076   -2.47730533794720
H         2.06501104647344    2.78720608140774   -3.55147037099910
H         2.72312975638459    3.04400833430134   -1.92844977943384
C         0.17673571636887    3.93670106798429   -1.87018586392230
H        -0.73495289428876    4.03394064201010   -1.28882844786542
H         0.94467653482695    4.54490057265990   -1.39848137048784
H         0.00580896436193    4.30751443105507   -2.87763596013747
B         1.56344476767587    0.63015717385781    1.88845874535979
O         2.92309438100776    0.80700050893943    1.87067360818108
C         3.26044582000322    2.08167413939424    2.43555301200192
C         4.53070238997359    1.95530817696686    3.27266368413073
H         4.43146304250005    1.16020669143108    4.00361861945563
H         5.36597840715700    1.71811074068311    2.61871112564709
H         4.73804219724630    2.89337231996819    3.78068752442190
C         3.50966793561541    3.02838093532705    1.25506442973569
H         3.76338753721961    4.02914194698252    1.59211685160761
H         4.33147210612290    2.63389648905532    0.66205276168268
H         2.62331756877519    3.04755114621374    0.62628895399528
C         1.97190119296843    2.45157164508053    3.24462880814999
O         0.97090864523211    1.62462766188402    2.63744980713898
C         1.54747957665150    3.91582283322032    3.14632511053569
H         1.29654974156064    4.17393867969476    2.12284577547653
H         0.66686113103248    4.07319787191174    3.76436184374233
H         2.34516499900049    4.56107216791240    3.50418645151264
C         2.05184067703907    2.03948243769461    4.71816832915113
H         2.28524660966669    0.98087091383097    4.79033101377555
H         2.79796893420231    2.61727598327738    5.25412014445102
H         1.08190432788980    2.20018068338907    5.18320499273803
B         2.27819999999871   -1.33089999999948    0.17410000000063
O         3.08315754557021   -2.36736244571100    0.58764184814691
C         4.37731033417506   -2.25711307111682   -0.02047606925633
C         5.29472566258858   -1.62133244645709    1.02926344224273
H         4.85803284430457   -0.68008076436136    1.35188988721165
H         5.33800698801416   -2.28234544216042    1.89078410991813
H         6.29887904891985   -1.47171437089429    0.64461648376824
C         4.89559366205463   -3.64920535335288   -0.37858247262898
H         5.03306921119624   -4.21764267233602    0.53727524567063
H         5.84950529372167   -3.57112848231330   -0.89272481109240
H         4.18965837338236   -4.18477396369086   -1.00449822593779
C         4.10596801366535   -1.31335114901176   -1.24364189444505
O         2.86895535024499   -0.67973154075875   -0.88525519533599
C         5.16899704587430   -0.24089381094215   -1.47429621562524
H         6.13998613330145   -0.69946661310208   -1.63976164629865
H         4.90134098695986    0.34286435135662   -2.35152592189493
H         5.21603588968008    0.42901536407430   -0.62304739928518
C         3.86344832914761   -2.07318712995652   -2.55502434989176
H         3.07866495482749   -2.81263858021667   -2.42056462964320
H         3.52914040391650   -1.36508088927216   -3.30980906028875
H         4.77204452048924   -2.55626841379322   -2.90146171319394
H        -3.38306473670505   -4.03002771200212   -2.56735436818292
H        -5.01087567725190    1.85743936264601    0.66071274636161
C         0.23589999999931   -1.68140000000040    2.96029999999737
C        -1.07960048766376   -1.88933435463945    3.38849905794873
N         1.24460576101137   -1.78278654533012    3.81351361325774
C        -1.31771495778032   -2.08872780586170    4.73747481506408
H        -1.90493644004241   -1.90036643040360    2.69329823551337
C         1.03530062970027   -2.04549966068072    5.09530502396764
C        -0.24860536942929   -2.17218276997907    5.61591381799778
H        -2.33029125641056   -2.21534309627769    5.09773832474173
C         2.26199291394901   -2.29667231221283    5.93814822053648
H        -0.40763894833075   -2.37630247553899    6.66411520480451
C         2.82743852188870   -1.05189314118860    6.57026618551490
H         3.01713862027349   -2.74106718161643    5.28977965212998
H         2.00228020276118   -3.00739892699951    6.72675509099985
C         2.11495008652016   -0.36136550994016    7.54374028864937
C         4.08904774892957   -0.59190029712115    6.21507694860102
C         2.65064726051206    0.76176661453117    8.14814941943837
H         1.13313817321237   -0.70788117163717    7.83170215621747
C         4.63015117255195    0.52819173626423    6.82340360189788
H         4.65077683936937   -1.11761727928576    5.45660312135217
C         3.91243099059585    1.20820772854085    7.79217076038947
H         2.08473131466450    1.28653150177702    8.90437320154318
H         5.61526141405514    0.86981089911546    6.54094983449367
H         4.33348715741427    2.08168091501663    8.26816563214022
