93
 energy: -135.177981682720 gnorm: 0.075699660206 xtb: 6.4.1 (1a32961)
N        -0.96510000000000   -2.11530000000000   -0.24090000000000
C        -2.24700000000000   -1.69840000000000   -0.36220000000000
C        -3.14040000000000   -2.36820000000000   -1.21200000000000
C        -2.70220000000000   -3.47560000000000   -1.93050000000000
C        -1.37780000000000   -3.89880000000000   -1.78760000000000
C        -0.54290000000000   -3.18670000000000   -0.93510000000000
H         0.49810000000000   -3.45630000000000   -0.78940000000000
H        -0.99570000000000   -4.76030000000000   -2.32770000000000
H        -4.16500000000000   -2.02890000000000   -1.31830000000000
C        -2.62130000000000   -0.50950000000000    0.44100000000000
N        -1.62600000000000    0.07330000000000    1.16020000000000
C        -1.89680000000000    1.15240000000000    1.91690000000000
C        -3.17230000000000    1.70330000000000    1.99650000000000
C        -4.20510000000000    1.11740000000000    1.26270000000000
C        -3.92610000000000    0.00250000000000    0.47820000000000
H        -4.71960000000000   -0.46420000000000   -0.09520000000000
H        -3.34630000000000    2.57510000000000    2.62070000000000
H        -1.04450000000000    1.57420000000000    2.43690000000000
Ir        0.42150000000000   -0.81650000000000    0.91330000000000
H         0.87260000000000   -2.23030000000000    1.54050000000000
B         0.50670000000000    0.41560000000000   -0.81540000000000
O         0.19500000000000   -0.04700000000000   -2.09150000000000
C         0.00650000000000    1.10040000000000   -2.95430000000000
C         0.49020000000000    0.74740000000000   -4.35780000000000
H         1.51610000000000    0.37380000000000   -4.33700000000000
H         0.44730000000000    1.62240000000000   -5.01670000000000
H        -0.14740000000000   -0.03390000000000   -4.78430000000000
C        -1.50120000000000    1.39560000000000   -2.96670000000000
H        -1.75370000000000    2.21460000000000   -3.64850000000000
H        -2.03200000000000    0.49450000000000   -3.28930000000000
H        -1.85170000000000    1.65210000000000   -1.96220000000000
C         0.84230000000000    2.20670000000000   -2.22040000000000
O         0.75200000000000    1.78260000000000   -0.83690000000000
C         2.32930000000000    2.18620000000000   -2.59900000000000
H         2.74130000000000    1.18500000000000   -2.45750000000000
H         2.48870000000000    2.51300000000000   -3.63180000000000
H         2.87200000000000    2.86270000000000   -1.93200000000000
C         0.28440000000000    3.62290000000000   -2.33660000000000
H        -0.72650000000000    3.69040000000000   -1.92910000000000
H         0.92130000000000    4.31480000000000   -1.77610000000000
H         0.26430000000000    3.94810000000000   -3.38320000000000
B         1.56300000000000    0.60960000000000    1.84840000000000
O         2.92780000000000    0.55230000000000    2.15020000000000
C         3.36330000000000    1.88660000000000    2.50260000000000
C         4.53140000000000    1.78590000000000    3.47740000000000
H         4.27910000000000    1.16090000000000    4.33690000000000
H         5.39390000000000    1.33790000000000    2.97340000000000
H         4.82390000000000    2.77870000000000    3.83820000000000
C         3.79700000000000    2.56850000000000    1.19670000000000
H         4.20020000000000    3.57090000000000    1.37680000000000
H         4.56740000000000    1.95560000000000    0.72110000000000
H         2.95240000000000    2.63260000000000    0.50540000000000
C         2.05040000000000    2.50090000000000    3.09320000000000
O         1.03750000000000    1.81620000000000    2.31910000000000
C         1.89100000000000    4.00450000000000    2.88650000000000
H         1.87290000000000    4.25440000000000    1.82410000000000
H         0.94940000000000    4.34260000000000    3.33170000000000
H         2.71080000000000    4.55150000000000    3.36630000000000
C         1.82470000000000    2.13200000000000    4.56520000000000
H         1.92610000000000    1.05330000000000    4.71320000000000
H         2.52610000000000    2.65280000000000    5.22540000000000
H         0.80630000000000    2.41580000000000    4.84900000000000
B         2.27820000000000   -1.33090000000000    0.17410000000000
O         2.89460000000000   -2.57740000000000    0.38450000000000
C         4.26930000000000   -2.48200000000000   -0.07210000000000
C         5.10900000000000   -2.05380000000000    1.14010000000000
H         4.76350000000000   -1.08740000000000    1.51750000000000
H         4.98050000000000   -2.79470000000000    1.93590000000000
H         6.17420000000000   -1.99290000000000    0.89300000000000
C         4.71950000000000   -3.84660000000000   -0.58470000000000
H         4.75280000000000   -4.56130000000000    0.24420000000000
H         5.72330000000000   -3.78370000000000   -1.02010000000000
H         4.03500000000000   -4.23600000000000   -1.34170000000000
C         4.16440000000000   -1.36220000000000   -1.16300000000000
O         3.08520000000000   -0.55030000000000   -0.65400000000000
C         5.40720000000000   -0.48870000000000   -1.31550000000000
H         6.27320000000000   -1.09010000000000   -1.61530000000000
H         5.23300000000000    0.26930000000000   -2.08590000000000
H         5.64270000000000    0.02650000000000   -0.38240000000000
C         3.71800000000000   -1.89830000000000   -2.53110000000000
H         2.82530000000000   -2.52160000000000   -2.42740000000000
H         3.46090000000000   -1.05250000000000   -3.17550000000000
H         4.50570000000000   -2.48290000000000   -3.01790000000000
H        -3.38500000000000   -4.00130000000000   -2.59310000000000
H        -5.21400000000000    1.52080000000000    1.29960000000000
C         0.23590000000000   -1.68140000000000    2.96030000000000
O        -0.94281084091122   -2.12435910666539    3.46680603471216
C         1.22120092263896   -1.89292043194433    3.90010864508071
C        -0.71444969328509   -2.56784366682969    4.72749740775439
C         0.60708871361997   -2.44800491756918    5.04539374685794
H         2.26492064246462   -1.68129300925825    3.75394429416285
H        -1.55926131508605   -2.92709980264054    5.28708725436702
H         1.08534973792101   -2.74770014296627    5.96055968233074
93
 energy: -135.184531868172 gnorm: 0.048624149826 xtb: 6.4.1 (1a32961)
N        -0.96208138763587   -2.10215561734627   -0.24976074670891
C        -2.23940722192182   -1.69118690711437   -0.36360315182233
C        -3.13404579636558   -2.36225259750983   -1.20570529727046
C        -2.70419869860287   -3.46414588123081   -1.92147247760411
C        -1.38462829638464   -3.88317672938267   -1.78243409910249
C        -0.55449689511604   -3.16964307591860   -0.93964018033349
H         0.47964507842949   -3.44898485083878   -0.79115324743846
H        -1.00823031898644   -4.74300894944925   -2.31792285683164
H        -4.15450432750998   -2.02675001389006   -1.30931529457109
C        -2.61121307366098   -0.51454140504130    0.43741466061152
N        -1.61912747984214    0.06733833616157    1.14615088803976
C        -1.89743511717560    1.13622841521429    1.89570046079948
C        -3.16494169314219    1.68479611460866    1.98536220036041
C        -4.19571823853690    1.10131248765382    1.25839283128248
C        -3.91435014059877   -0.00586403451920    0.47872460801781
H        -4.70560046575798   -0.46910297696182   -0.09035086461842
H        -3.33931467686365    2.54898298549187    2.61092772769965
H        -1.05353726680612    1.55582336319918    2.42273416404888
Ir        0.42150000000000   -0.81650000000000    0.91330000000000
H         0.87260000000000   -2.23030000000000    1.54050000000000
B         0.49761406004473    0.41807604544006   -0.79290706836249
O         0.17624782730077   -0.03757619363793   -2.06484048615539
C         0.00993679576865    1.09580777926783   -2.94332672823978
C         0.48855816398990    0.74760121710133   -4.34866374231863
H         1.50755781354517    0.37103723560702   -4.32758052442932
H         0.44331825836023    1.62348071934076   -4.99646673697707
H        -0.15020773610068   -0.02830418156512   -4.76906159637587
C        -1.49416741883407    1.39844716034758   -2.96875774458405
H        -1.73269360035839    2.21173563220426   -3.65250860988238
H        -2.02429501944628    0.50153909574962   -3.28890565089576
H        -1.84046547251174    1.65283038080529   -1.96689858909123
C         0.83148624124034    2.20526251450134   -2.21129746294405
O         0.75664406185966    1.77513308264891   -0.83475296282801
C         2.31374039315583    2.19070082483134   -2.59976856197686
H         2.71866731039652    1.19182882405218   -2.45037584114234
H         2.46443682330552    2.51279226527480   -3.62943931157681
H         2.85576059203908    2.86549889114173   -1.93826941088522
C         0.27945923571205    3.62143493751915   -2.33757019964953
H        -0.72379050368417    3.69044965700165   -1.92528781916667
H         0.91907609809976    4.30531803518687   -1.78118500589878
H         0.26157106709540    3.93425711120523   -3.38172435780005
B         1.56675289700345    0.61137407421871    1.86390297233625
O         2.92766867506723    0.56297038295565    2.13936716303679
C         3.36428919609470    1.88591317885724    2.51006600484521
C         4.53448234345928    1.78973032980452    3.48026268860102
H         4.28254803309657    1.16124987446371    4.33029740313688
H         5.38925282683913    1.34558153282439    2.97204591433862
H         4.81653085722828    2.78029624758518    3.83600707809813
C         3.79889566720947    2.57350345349364    1.21120557176293
H         4.19981316825357    3.56943024971527    1.39502527075387
H         4.56289842851287    1.96234925458973    0.73386408508728
H         2.95033957110492    2.62534260995917    0.53035915187544
C         2.05409810232526    2.50406235875318    3.09013037095053
O         1.04247478128055    1.80593159141609    2.33724298100040
C         1.89395747333071    4.00613153930802    2.88911514734006
H         1.86831996003501    4.24951208532885    1.83080972011092
H         0.95649151925002    4.33496647974829    3.33587845590829
H         2.71427343350636    4.54275272167413    3.36513374844020
C         1.83313186240094    2.13998042952752    4.56223350070629
H         1.93572241357490    1.06411402397017    4.69876493335982
H         2.53413064040488    2.66162344772652    5.21134647782437
H         0.81841308533515    2.41787010143038    4.84654033727525
B         2.27820000000000   -1.33090000000000    0.17410000000000
O         2.90109391218223   -2.56174973349812    0.38941765997533
C         4.26592234390518   -2.48315909859810   -0.07886498866379
C         5.11068158252767   -2.05828834422827    1.12662438372680
H         4.75346577041002   -1.09877369371665    1.49821981807709
H         4.97957120383881   -2.79406426665864    1.91915335855115
H         6.16836663910845   -1.99780399352317    0.87452093092798
C         4.72084032775379   -3.84507777429516   -0.58917019928468
H         4.75068213386520   -4.54942473091989    0.24082124631574
H         5.71852319465031   -3.77315484219951   -1.02145718601417
H         4.03497892771827   -4.23245674346194   -1.33772708014700
C         4.16625532172934   -1.35985815198858   -1.15860158685853
O         3.07356984109024   -0.56370751462816   -0.66224848893173
C         5.40922398360907   -0.49119221207662   -1.31642555630853
H         6.26542060186195   -1.09679450373759   -1.61237833422598
H         5.23041198147285    0.25988968168696   -2.08460749746139
H         5.63683894180079    0.02316448618536   -0.38731307886202
C         3.72916642172074   -1.89890210399888   -2.52671837109967
H         2.83722330933225   -2.51437467884454   -2.41782447045773
H         3.47156534852084   -1.05726004274922   -3.16820884477511
H         4.51929849175674   -2.47574233908100   -3.00453225903405
H        -3.38376308414847   -3.98897311408483   -2.57908648824437
H        -5.19947501468708    1.50317089577653    1.29807100085909
C         0.23589999999999   -1.68140000000001    2.96030000000000
O        -0.94585952686958   -2.12596510191818    3.45826760806572
C         1.21216958063113   -1.88224095477904    3.91200243999523
C        -0.72723695486882   -2.56172203059889    4.72281187026455
C         0.58778156427302   -2.43375252963194    5.05256457584877
H         2.25340121490920   -1.66521540905832    3.77539339441785
H        -1.57370478395959   -2.92210582268449    5.27467775985770
H         1.05715950336617   -2.72595029814490    5.97188326690458
93
 energy: -135.186527950429 gnorm: 0.040478571671 xtb: 6.4.1 (1a32961)
N        -0.95475794420995   -2.09621431346694   -0.25680302200662
C        -2.22960789628013   -1.68653031558649   -0.36520695113522
C        -3.12949740083460   -2.35587559921953   -1.20192580575273
C        -2.70828816616113   -3.45529427201880   -1.91864558964245
C        -1.38930018495988   -3.87468198018500   -1.78373267364784
C        -0.55911776970519   -3.16149222139323   -0.94582420196733
H         0.47356458215285   -3.44518272436054   -0.80481987023698
H        -1.01857024378413   -4.73396163890132   -2.31756663394515
H        -4.14843688457297   -2.02103234562412   -1.29774090486463
C        -2.59793887772551   -0.51879818620276    0.43309258492634
N        -1.60880674177922    0.06014962804139    1.14065523484517
C        -1.89314076886446    1.12181297333968    1.88714143872657
C        -3.15711805939478    1.66955894996813    1.98183844867101
C        -4.18813069472448    1.08605076817443    1.25618435534920
C        -3.90235674064527   -0.01472483834742    0.47641778576575
H        -4.69142653899007   -0.48070869343234   -0.08881973072877
H        -3.33210588867309    2.52890331522473    2.60828623416083
H        -1.05411427522675    1.54720757739134    2.41430785487064
Ir        0.42150000000000   -0.81650000000000    0.91330000000000
H         0.87260000000000   -2.23030000000000    1.54050000000000
B         0.49786045817307    0.42412683299425   -0.77213037753006
O         0.15612177452471   -0.03008389754129   -2.03754348687447
C         0.00398521873210    1.09215226650801   -2.92402821697430
C         0.48705610217979    0.74089681278514   -4.32741907618322
H         1.50240946740682    0.36104308725811   -4.30787355423526
H         0.44125669242321    1.62050127410425   -4.96438949101624
H        -0.15554794577565   -0.02872578964825   -4.74667598313164
C        -1.49848857695340    1.40369499085731   -2.96726694836206
H        -1.71894691991656    2.21383741488370   -3.65565883766326
H        -2.02817741015719    0.50950018943859   -3.28864760839862
H        -1.84649709699176    1.66064812970458   -1.96901716625818
C         0.82258725200479    2.20287942721173   -2.19732211543707
O         0.76075357419713    1.77473530763725   -0.82617493498198
C         2.30200218947105    2.19519907379430   -2.59729117123992
H         2.70518005411088    1.19831810349540   -2.44189569168533
H         2.43828943645660    2.51096556956312   -3.62764738728846
H         2.84357220834277    2.87462115783844   -1.94391940817865
C         0.26731968666314    3.61755375777666   -2.33034129661027
H        -0.73156905933396    3.69198368092436   -1.91412166447498
H         0.91227207333239    4.29990143770266   -1.78349376757807
H         0.24941302052883    3.91417106657575   -3.37567333945026
B         1.57358970866180    0.61769363533020    1.86799798720278
O         2.92837350247011    0.57241782352746    2.12946607669689
C         3.36495726179156    1.88646126763696    2.51367166424414
C         4.53407012670220    1.79063647820318    3.48603335454902
H         4.28629179055466    1.15736325403311    4.33064758090568
H         5.38641649600006    1.35433855662123    2.97290062407691
H         4.80554826141173    2.78095531623784    3.83972381970018
C         3.80277918917591    2.58392674477835    1.22152110375648
H         4.19948172340958    3.57610606360704    1.41331909004367
H         4.56599187731765    1.97600018084060    0.74370886252707
H         2.95214760508552    2.62944085778605    0.54597727755315
C         2.05605131961163    2.50205626201776    3.09252180988981
O         1.04632951489074    1.79609440599217    2.35318400409843
C         1.89605059266928    4.00384092470095    2.88935450549741
H         1.86203243986990    4.24558592814186    1.83316461810390
H         0.96355241845022    4.32811982255335    3.34276241501434
H         2.71979373301805    4.53216379652334    3.36044328217388
C         1.84614913170281    2.14629319463707    4.56898120905579
H         1.95190729784896    1.07202738937354    4.69903760384634
H         2.54944739281063    2.67190774896122    5.20673593455371
H         0.83345577409932    2.42048916150935    4.85481669902760
B         2.27820000000000   -1.33090000000000    0.17410000000000
O         2.90383799529635   -2.54935669651738    0.39723783807772
C         4.25931693674880   -2.48068061825006   -0.08107678416329
C         5.11530823907234   -2.05970453253891    1.11734280107779
H         4.75227885215712   -1.10383435771174    1.48678413783353
H         4.98614060320128   -2.79462070001747    1.90728523594174
H         6.16695207872763   -1.99922745126252    0.85545684010809
C         4.71350689887057   -3.84191995540376   -0.59508580661733
H         4.74646889790717   -4.53998245681288    0.23612955171653
H         5.70686940012284   -3.76006909537328   -1.02661468493664
H         4.02744920140855   -4.23086428331048   -1.33898065777222
C         4.16151522679984   -1.35897172230256   -1.15829942329423
O         3.06123284624377   -0.57297516228131   -0.67073139266005
C         5.40539949424159   -0.49121024339909   -1.31225348451580
H         6.25382980989246   -1.10373443738521   -1.60318829930996
H         5.22726299174545    0.25316930794204   -2.08305074929460
H         5.62975882922137    0.02516811362992   -0.38630742732447
C         3.73876968542418   -1.90105426880690   -2.53034761346462
H         2.84810262631498   -2.51398372024840   -2.42044740497489
H         3.48443584371642   -1.06110773165950   -3.17175905690061
H         4.53520422549469   -2.47303501644905   -2.99561067520380
H        -3.38969065791877   -3.98017467743009   -2.56968394476416
H        -5.19063123360297    1.48323785807221    1.29976422502586
C         0.23589999999997   -1.68140000000003    2.96030000000001
O        -0.95200015216512   -2.13030506568648    3.44074898712560
C         1.19618523033530   -1.86375476828661    3.93217954204343
C        -0.75316707748733   -2.55042740237336    4.71393417383795
C         0.55348820666935   -2.40748085855749    5.06665718935915
H         2.23647842015418   -1.63746114117676    3.81269313269679
H        -1.60604269443238   -2.91277523070332    5.25289324023451
H         1.00764490071723   -2.68459352968605    5.99747215116130
93
 energy: -135.187530742336 gnorm: 0.040586845102 xtb: 6.4.1 (1a32961)
N        -0.94580298881597   -2.09507605435457   -0.26526824029834
C        -2.22115770393919   -1.68547379893011   -0.36760572365085
C        -3.12646295255155   -2.35359499674735   -1.20045848776589
C        -2.71175372010804   -3.45292661945923   -1.91920243688986
C        -1.39102741567064   -3.87262401819271   -1.79100915422734
C        -0.55660526350327   -3.15893142170533   -0.95780665613791
H         0.47604954315443   -3.44677630172243   -0.82325208332654
H        -1.02487274540732   -4.73251804108212   -2.32552070469677
H        -4.14500650624749   -2.01665979904355   -1.28978094052434
C        -2.58739026255612   -0.52272706384987    0.43187643300691
N        -1.59871469957622    0.05681582726658    1.13939923589842
C        -1.88649496758529    1.11657345148784    1.88528492022690
C        -3.15126911614264    1.66076361299353    1.98422699888307
C        -4.18320365405325    1.07460455396454    1.25952864414773
C        -3.89382576914086   -0.02241430985729    0.47763042024529
H        -4.68081534776348   -0.49060402209378   -0.08801354201869
H        -3.32775570275637    2.51680455215977    2.61321239186479
H        -1.05075392842617    1.54506266362194    2.41554296057634
Ir        0.42150000000000   -0.81650000000000    0.91330000000000
H         0.87260000000000   -2.23030000000000    1.54050000000000
B         0.48638466953703    0.43424204665406   -0.75365182478166
O         0.13300745104480   -0.02363232273058   -2.01421174436100
C        -0.00645448041649    1.09083617308221   -2.90590579619586
C         0.48296587767333    0.73179056343565   -4.30599669955385
H         1.49578765532789    0.34647903338167   -4.28164891417753
H         0.44328840180841    1.61238337571606   -4.94093344845780
H        -0.16286270686604   -0.03430372462656   -4.72581350944729
C        -1.50776733187867    1.41097060388364   -2.96483026199960
H        -1.71330628012273    2.21954618774516   -3.65864096092962
H        -2.03836509452813    0.51860406116033   -3.28852347852392
H        -1.86320836760559    1.67316648740694   -1.97094135684055
C         0.81272027449908    2.20357260366768   -2.18288666390524
O         0.76194262247732    1.77980965831555   -0.81398636556964
C         2.29015066722277    2.19996969857693   -2.59385509047776
H         2.69659470264065    1.20548145763866   -2.43315746005906
H         2.41516156806778    2.50857557833667   -3.62713053442542
H         2.83250195619632    2.88674345983089   -1.94939353083105
C         0.25452914553391    3.61760285617912   -2.32069209454901
H        -0.74144951736745    3.69472532694102   -1.89889404625419
H         0.90356967230979    4.30351711125344   -1.78379731126761
H         0.23072744529873    3.90245465101919   -3.36863059373694
B         1.57654716700603    0.61642151147875    1.87938416740439
O         2.93169329189374    0.57727248657771    2.12002782150842
C         3.36641438476792    1.88639004354476    2.51590400533692
C         4.53579125108680    1.78935844767595    3.48953257279332
H         4.29145968441957    1.14983550783301    4.33000450775370
H         5.39043734219396    1.36180930045148    2.97351019164213
H         4.79874685199928    2.77978471138492    3.84777690470020
C         3.80664191192154    2.59555110615053    1.22993889171523
H         4.19859779409520    3.58696996839424    1.43102026974477
H         4.57333104885516    1.99334282047474    0.75100725461233
H         2.95679205367541    2.64086029437141    0.55406965762509
C         2.05819533373504    2.49959979541499    3.09836757222416
O         1.04747299087363    1.78654763397532    2.37147447642819
C         1.89520116971510    4.00142211139766    2.89114647952359
H         1.85159669047362    4.24053648219349    1.83490179365628
H         0.96720793436515    4.32594818273019    3.35277295856643
H         2.72411721262843    4.52798711602831    3.35380423625726
C         1.85982926593730    2.15194604162890    4.57946671086553
H         1.96976804979769    1.07882001432093    4.71170555908279
H         2.56706760185103    2.68344563593442    5.20676221019902
H         0.84859940994464    2.42453139961199    4.87028391967019
B         2.27820000000000   -1.33090000000001    0.17410000000000
O         2.90628194898126   -2.54201448979909    0.40633321699972
C         4.25470835353869   -2.47879337934496   -0.08233206995088
C         5.12169266383001   -2.05990337995356    1.11005345706104
H         4.75907700600014   -1.10521441209685    1.48198177736475
H         4.99774127822089   -2.79594376711629    1.89920318006598
H         6.16998218246207   -1.99903632677457    0.83837786896851
C         4.70530877091215   -3.84129165511867   -0.59921223511359
H         4.74313854052071   -4.53789285774466    0.23244851988624
H         5.69577149070344   -3.75507724504198   -1.03498832216721
H         4.01616247710233   -4.23076140597652   -1.33948461839468
C         4.15658580715320   -1.35801118615355   -1.16015500360135
O         3.05032728041143   -0.57799583355195   -0.68116536999463
C         5.40035477591967   -0.48811683893040   -1.30914395271764
H         6.24790467971441   -1.10434838119001   -1.59290068620711
H         5.22574109874831    0.25216288128096   -2.08412224366152
H         5.61981588442072    0.03140265391441   -0.38421940818446
C         3.74733313748542   -1.90326868941521   -2.53616270211190
H         2.85751904596303   -2.51755344778672   -2.43186552129813
H         3.49803969325220   -1.06448956995705   -3.18057094825137
H         4.55073209938846   -2.47305722126438   -2.99044256683407
H        -3.39691158923949   -3.97705234479206   -2.56616581893025
H        -5.18679935328518    1.46724479091589    1.30617681423954
C         0.23589999999995   -1.68140000000005    2.96030000000001
O        -0.95966364872646   -2.13483880933077    3.41889849941158
C         1.17563663131364   -1.84089645832942    3.95644282128884
C        -0.78645043812283   -2.53567776658173    4.70272636954553
C         0.51058164847481   -2.37414896817603    5.08411297904422
H         2.21608162730491   -1.60403001705493    3.85845622465085
H        -1.64852754410039   -2.89983933032735    5.22611510990204
H         0.94537052553480   -2.63098153224349    6.03081547404121
93
 energy: -135.188691689344 gnorm: 0.040866052383 xtb: 6.4.1 (1a32961)
N        -0.93447043968900   -2.09659615674602   -0.27601455246220
C        -2.21150903684304   -1.68667204656640   -0.37062650457430
C        -3.12245363046157   -2.35341618962013   -1.20015667839908
C        -2.71425328865611   -3.45271613431501   -1.92227106047975
C        -1.39122084136818   -3.87262473167302   -1.80303361791322
C        -0.55052733590431   -3.15882450567999   -0.97481549215339
H         0.48373057229172   -3.44836632171166   -0.85132063461102
H        -1.02972518846890   -4.73269758918341   -2.34085287096226
H        -4.14109838481232   -2.01375374900948   -1.28183036418078
C        -2.57581398748060   -0.52799639102475    0.43250331934926
N        -1.58712626225818    0.05122947468421    1.14313348555262
C        -1.87784314129258    1.11067524851338    1.89013853709862
C        -3.14432689146369    1.65090714467165    1.99199851798990
C        -4.17713906340476    1.06222479474432    1.26749461475845
C        -3.88409316401618   -0.03029063299451    0.48114190945894
H        -4.66910376346768   -0.50077466127901   -0.08587539223275
H        -3.32234650004921    2.50463154686826    2.62366663148720
H        -1.04417958912558    1.54434742358572    2.42062517138398
Ir        0.42150000000000   -0.81650000000000    0.91330000000000
H         0.87260000000000   -2.23030000000000    1.54050000000000
B         0.48325327304967    0.44733867168054   -0.73234836827181
O         0.10193206033944   -0.01311805346692   -1.98451609989866
C        -0.02420806384793    1.09238017575494   -2.88198755067767
C         0.47429801761889    0.71763704208851   -4.27605933515954
H         1.48315018840947    0.32159886798656   -4.23935965535970
H         0.44915141144500    1.59525913650638   -4.91638786416171
H        -0.17599613500950   -0.04509119452961   -4.69601467776664
C        -1.52371106190380    1.42391291799824   -2.96069445248387
H        -1.71220226837935    2.23045752727488   -3.66198949296847
H        -2.05666646295080    0.53374230729801   -3.28732807703132
H        -1.89182155434597    1.69479431284698   -1.97332672543211
C         0.79987384633605    2.20827591357457   -2.16541609174286
O         0.76419386262801    1.78950894948041   -0.79801060370357
C         2.27486898103335    2.20919656311901   -2.58973529391602
H         2.68851600657181    1.21866756743321   -2.42070723848924
H         2.38714102138734    2.50611863710031   -3.62800892627335
H         2.81849018270471    2.90775297397306   -1.95840410297147
C         0.23547812195572    3.62074836746548   -2.30630814036177
H        -0.75606257397620    3.69914681502969   -1.87333799166677
H         0.88966705248355    4.31389185284660   -1.78408482334420
H         0.19795586179865    3.89435719139192   -3.35725777299792
B         1.58142848799394    0.61952220262068    1.88070058736279
O         2.93728082033527    0.58520735790455    2.10437154525558
C         3.37050858542179    1.88851616058803    2.51737368085635
C         4.53974843418028    1.78525941752764    3.49266965539590
H         4.29959581284294    1.13417690893771    4.32609841283511
H         5.39961205541381    1.37118652330302    2.97318838224932
H         4.79353271995667    2.77419186041536    3.86338081475523
C         3.81448076583874    2.61411998193200    1.24039314368329
H         4.19885456576086    3.60590056598051    1.45563984770532
H         4.58883561738573    2.02205844623040    0.76014218546167
H         2.96828913011291    2.66232175152998    0.55995115846007
C         2.06229166457205    2.49614315338385    3.10906831556991
O         1.04820424472492    1.77546622799577    2.39710610900594
C         1.89235516451951    3.99751600281319    2.89530015826255
H         1.83239653914773    4.23143223091172    1.83805988249257
H         0.97113547631462    4.32415142633226    3.37016480117482
H         2.72882136534134    4.52712952675964    3.34222638631903
C         1.88120524401568    2.15994443064866    4.59643497099679
H         1.99676801959659    1.08843711297949    4.73753970892445
H         2.59403106932616    2.70048821017118    5.21022898449657
H         0.87212020605356    2.43171672599871    4.89611386633887
B         2.27820000000001   -1.33090000000001    0.17410000000001
O         2.91204382406662   -2.53377498386277    0.41936389603673
C         4.25254240819288   -2.47589551908198   -0.08333263762897
C         5.13454811967456   -2.05962541309221    1.10082350757264
H         4.77582297140928   -1.10569526448424    1.47919678200573
H         5.01981463408374   -2.79813271451175    1.88961151951648
H         6.17951064285043   -1.99770298265180    0.81615852103907
C         4.69475371475986   -3.84130225994069   -0.60359604901149