96
 energy: -140.459297675688 gnorm: 0.078160192935 xtb: 6.4.0 (f63f532)
N        -0.96510000000000   -2.11530000000000   -0.24090000000000
C        -2.24700000000000   -1.69840000000000   -0.36220000000000
C        -3.14040000000000   -2.36820000000000   -1.21200000000000
C        -2.70220000000000   -3.47560000000000   -1.93050000000000
C        -1.37780000000000   -3.89880000000000   -1.78760000000000
C        -0.54290000000000   -3.18670000000000   -0.93510000000000
H         0.49810000000000   -3.45630000000000   -0.78940000000000
H        -0.99570000000000   -4.76030000000000   -2.32770000000000
H        -4.16500000000000   -2.02890000000000   -1.31830000000000
C        -2.62130000000000   -0.50950000000000    0.44100000000000
N        -1.62600000000000    0.07330000000000    1.16020000000000
C        -1.89680000000000    1.15240000000000    1.91690000000000
C        -3.17230000000000    1.70330000000000    1.99650000000000
C        -4.20510000000000    1.11740000000000    1.26270000000000
C        -3.92610000000000    0.00250000000000    0.47820000000000
H        -4.71960000000000   -0.46420000000000   -0.09520000000000
H        -3.34630000000000    2.57510000000000    2.62070000000000
H        -1.04450000000000    1.57420000000000    2.43690000000000
Ir        0.42150000000000   -0.81650000000000    0.91330000000000
H         0.87260000000000   -2.23030000000000    1.54050000000000
B         0.50670000000000    0.41560000000000   -0.81540000000000
O         0.19500000000000   -0.04700000000000   -2.09150000000000
C         0.00650000000000    1.10040000000000   -2.95430000000000
C         0.49020000000000    0.74740000000000   -4.35780000000000
H         1.51610000000000    0.37380000000000   -4.33700000000000
H         0.44730000000000    1.62240000000000   -5.01670000000000
H        -0.14740000000000   -0.03390000000000   -4.78430000000000
C        -1.50120000000000    1.39560000000000   -2.96670000000000
H        -1.75370000000000    2.21460000000000   -3.64850000000000
H        -2.03200000000000    0.49450000000000   -3.28930000000000
H        -1.85170000000000    1.65210000000000   -1.96220000000000
C         0.84230000000000    2.20670000000000   -2.22040000000000
O         0.75200000000000    1.78260000000000   -0.83690000000000
C         2.32930000000000    2.18620000000000   -2.59900000000000
H         2.74130000000000    1.18500000000000   -2.45750000000000
H         2.48870000000000    2.51300000000000   -3.63180000000000
H         2.87200000000000    2.86270000000000   -1.93200000000000
C         0.28440000000000    3.62290000000000   -2.33660000000000
H        -0.72650000000000    3.69040000000000   -1.92910000000000
H         0.92130000000000    4.31480000000000   -1.77610000000000
H         0.26430000000000    3.94810000000000   -3.38320000000000
B         1.56300000000000    0.60960000000000    1.84840000000000
O         2.92780000000000    0.55230000000000    2.15020000000000
C         3.36330000000000    1.88660000000000    2.50260000000000
C         4.53140000000000    1.78590000000000    3.47740000000000
H         4.27910000000000    1.16090000000000    4.33690000000000
H         5.39390000000000    1.33790000000000    2.97340000000000
H         4.82390000000000    2.77870000000000    3.83820000000000
C         3.79700000000000    2.56850000000000    1.19670000000000
H         4.20020000000000    3.57090000000000    1.37680000000000
H         4.56740000000000    1.95560000000000    0.72110000000000
H         2.95240000000000    2.63260000000000    0.50540000000000
C         2.05040000000000    2.50090000000000    3.09320000000000
O         1.03750000000000    1.81620000000000    2.31910000000000
C         1.89100000000000    4.00450000000000    2.88650000000000
H         1.87290000000000    4.25440000000000    1.82410000000000
H         0.94940000000000    4.34260000000000    3.33170000000000
H         2.71080000000000    4.55150000000000    3.36630000000000
C         1.82470000000000    2.13200000000000    4.56520000000000
H         1.92610000000000    1.05330000000000    4.71320000000000
H         2.52610000000000    2.65280000000000    5.22540000000000
H         0.80630000000000    2.41580000000000    4.84900000000000
B         2.27820000000000   -1.33090000000000    0.17410000000000
O         2.89460000000000   -2.57740000000000    0.38450000000000
C         4.26930000000000   -2.48200000000000   -0.07210000000000
C         5.10900000000000   -2.05380000000000    1.14010000000000
H         4.76350000000000   -1.08740000000000    1.51750000000000
H         4.98050000000000   -2.79470000000000    1.93590000000000
H         6.17420000000000   -1.99290000000000    0.89300000000000
C         4.71950000000000   -3.84660000000000   -0.58470000000000
H         4.75280000000000   -4.56130000000000    0.24420000000000
H         5.72330000000000   -3.78370000000000   -1.02010000000000
H         4.03500000000000   -4.23600000000000   -1.34170000000000
C         4.16440000000000   -1.36220000000000   -1.16300000000000
O         3.08520000000000   -0.55030000000000   -0.65400000000000
C         5.40720000000000   -0.48870000000000   -1.31550000000000
H         6.27320000000000   -1.09010000000000   -1.61530000000000
H         5.23300000000000    0.26930000000000   -2.08590000000000
H         5.64270000000000    0.02650000000000   -0.38240000000000
C         3.71800000000000   -1.89830000000000   -2.53110000000000
H         2.82530000000000   -2.52160000000000   -2.42740000000000
H         3.46090000000000   -1.05250000000000   -3.17550000000000
H         4.50570000000000   -2.48290000000000   -3.01790000000000
H        -3.38500000000000   -4.00130000000000   -2.59310000000000
H        -5.21400000000000    1.52080000000000    1.29960000000000
C         0.23590000000000   -1.68140000000000    2.96030000000000
C        -0.98416435568249   -2.13927157685882    3.46568320356151
C         1.31110273026401   -1.88518496541622    3.84624898574239
C        -1.13047151172932   -2.64893482660149    4.75134180812642
H        -1.85452382067484   -2.14500989227342    2.82125804906294
C         1.18461327145305   -2.31720978932891    5.16049393371555
Cl        2.95909837083472   -1.79923753986213    3.34646703107005
C        -0.05493017797749   -2.71668843405989    5.62512744595740
H        -2.08971284616125   -3.03829035796089    5.06698003136175
H         2.07855445448980   -2.41489847215295    5.76277536284735
H        -0.14804818887289   -3.12570881178485    6.62248423068972
96
 energy: -140.467744469690 gnorm: 0.049550507974 xtb: 6.4.0 (f63f532)
N        -0.96096855326065   -2.10199420446347   -0.25018598568988
C        -2.23885357846181   -1.69140276652240   -0.36303390037970
C        -3.13370101857886   -2.36328467666845   -1.20478223611932
C        -2.70331913105751   -3.46474374349152   -1.92090688675266
C        -1.38335110639430   -3.88341500664903   -1.78242252911346
C        -0.55312669438481   -3.16915531401267   -0.94032344851245
H         0.48097013046585   -3.44898237285121   -0.79154590962224
H        -1.00670294082557   -4.74313773649899   -2.31808031413953
H        -4.15438420931054   -2.02815031977098   -1.30845346449930
C        -2.61063124185792   -0.51387972883990    0.43707160335164
N        -1.61870519849828    0.06758953142584    1.14763803046705
C        -1.89741978803871    1.13770572339764    1.89603973066035
C        -3.16491389191138    1.68582995604372    1.98552969354232
C        -4.19589733651986    1.10132066173357    1.25895973381195
C        -3.91416591388320   -0.00514955808701    0.47829501429710
H        -4.70567998458806   -0.46897207923808   -0.09014168637141
H        -3.33986692942235    2.54892131498424    2.61247444475118
H        -1.05447401458735    1.55638375186465    2.42517509387910
Ir        0.42150000000000   -0.81650000000000    0.91330000000000
H         0.87260000000000   -2.23030000000000    1.54050000000000
B         0.49578177850487    0.42150957869192   -0.79153950365953
O         0.17602156016808   -0.03628403827713   -2.06336102301536
C         0.00889537920053    1.09643399477711   -2.94266424123809
C         0.48705012426748    0.74824315159134   -4.34836271014833
H         1.50641053370397    0.37229871621268   -4.32820867070621
H         0.44131620459693    1.62399152751994   -4.99641695745216
H        -0.15136507754570   -0.02794123856330   -4.76905115127806
C        -1.49564874610112    1.39802777692516   -2.96738914561490
H        -1.73524015446277    2.21125663845814   -3.65083355074123
H        -2.02564576418960    0.50094259812056   -3.28766684479429
H        -1.84212979941037    1.65253016356371   -1.96550968573604
C         0.83054935596481    2.20665388393345   -2.21162980639885
O         0.75547568847144    1.77839415123640   -0.83469586515224
C         2.31307000793396    2.19187945785549   -2.59999407922412
H         2.71889760893808    1.19310740572790   -2.45140033458578
H         2.46435945415287    2.51409150350113   -3.62955002877440
H         2.85554889863935    2.86643237056854   -1.93842035097241
C         0.27802319342274    3.62262483045689   -2.33741876806275
H        -0.72530570698921    3.69107842540233   -1.92498122661629
H         0.91736778878060    4.30662735614398   -1.78069251513392
H         0.25994365385618    3.93588895410084   -3.38142019591414
B         1.56105498993217    0.63586470192186    1.83974601436425
O         2.92423927618386    0.59575484536838    2.10467642564136
C         3.36249554178147    1.90652463608370    2.50170877682522
C         4.53092032722604    1.79407232944278    3.47403270354477
H         4.27737656530723    1.15982468997033    4.31992214867316
H         5.38538519741242    1.34830726619653    2.96629596668740
H         4.81738449122448    2.78079342700826    3.83695774155912
C         3.80072539057446    2.59043842738058    1.20403927648184
H         4.20414639290926    3.58445505510124    1.38858863637387
H         4.56342899850947    1.97403112004162    0.73003397302607
H         2.95235148891554    2.64088243764259    0.52255407986666
C         2.05023713055153    2.51248571089506    3.08876475774880
O         1.03438496408858    1.82067407849988    2.33516054698980
C         1.89099464242617    4.01372798688100    2.89154209977110
H         1.86580692313461    4.25708907565003    1.83304879835284
H         0.95353611440067    4.34098860827545    3.33914764633881
H         2.71285184172171    4.54768583534294    3.36768912143618
C         1.83258061016771    2.14007291817582    4.56001012982638
H         1.93811744292190    1.06422708563534    4.69644974695211
H         2.53384576431034    2.65986557300811    5.21011888364107
H         0.81789041044258    2.41518747426713    4.84763287148982
B         2.27820000000001   -1.33089999999999    0.17410000000003
O         2.90277428921797   -2.56301319542388    0.37931104037300
C         4.26845946915489   -2.48279717552236   -0.08708504509553
C         5.12798517822004   -2.05937182391083    1.10888873130300
H         4.78246717718539   -1.09636456892005    1.48187256861020
H         5.00236444004077   -2.79191678781259    1.90560062538625
H         6.18394803851034   -2.00112843402988    0.85193860309016
C         4.72131253866529   -3.84561983449413   -0.59506253275193
H         4.75164935490298   -4.54768577272080    0.23718676330863
H         5.71910027672365   -3.77389981750101   -1.02697250633375
H         4.03471291049372   -4.23397090572033   -1.34252756276539
C         4.16459677788268   -1.35684618674210   -1.16264615984997
O         3.07276625729901   -0.56130821021274   -0.66212353925779
C         5.40796793329825   -0.48857597778799   -1.31936554779510
H         6.26407127908187   -1.09430056585480   -1.61553359792779
H         5.22974286762835    0.26369671127669   -2.08666595451693
H         5.63669842901862    0.02436290102220   -0.38947039185815
C         3.72626714881335   -1.89607898064077   -2.53005225455255
H         2.83509194616949   -2.51290122687000   -2.42066620152063
H         3.46823853136539   -1.05465014970772   -3.17178177411288
H         4.51659573481566   -2.47293403645297   -3.00762656617971
H        -3.38269757172583   -3.98960262570564   -2.57880959718688
H        -5.20006359019897    1.50212704198348    1.29973922270104
C         0.23590000000002   -1.68139999999993    2.96030000000004
C        -0.99614409366266   -2.12333505152541    3.45695185906606
C         1.30142563464784   -1.88951563674062    3.85865282895707
C        -1.15784524706861   -2.62823122937721    4.74117692629166
H        -1.86214683134839   -2.11879623950425    2.80866222733515
C         1.15475891463191   -2.31931990927878    5.16948534434347
Cl        2.95272929375009   -1.80245251305007    3.36818676685951
C        -0.09052821933628   -2.70573836712861    5.62093334550849
H        -2.12210739662985   -3.00596518291725    5.05011524021850
H         2.03980361431267   -2.42289537702204    5.77972390437934
H        -0.19664964281931   -3.11152024880413    6.61598870723958
96
 energy: -140.471527753280 gnorm: 0.039782777071 xtb: 6.4.0 (f63f532)
N        -0.95215096896671   -2.09579233630679   -0.25630724006576
C        -2.22737554800915   -1.68630471080665   -0.36406523885740
C        -3.12736495334395   -2.35722695472371   -1.19996912145470
C        -2.70554732704150   -3.45546700675061   -1.91699819288810
C        -1.38613058771108   -3.87373183029342   -1.78314771767194
C        -0.55674555952487   -3.15994472093777   -0.94577694874924
H         0.47565725907783   -3.44444244178736   -0.80474646383685
H        -1.01507273018093   -4.73240776894692   -2.31717253825153
H        -4.14664232513308   -2.02388245398521   -1.29542932231508
C        -2.59584317132530   -0.51779575611792    0.43178663004992
N        -1.60706360506849    0.06070390302879    1.14138396891688
C        -1.89327233262504    1.12311027166290    1.88622152010655
C        -3.15668571712478    1.67005452608027    1.98091629186991
C        -4.18764938731127    1.08544028950719    1.25565000419282
C        -3.90081893700356   -0.01359271563506    0.47472809570956
H        -4.68998097077518   -0.47995523045473   -0.08970119543659
H        -3.33274953997159    2.52732047540623    2.60935392405921
H        -1.05664809977254    1.54735380534250    2.41723815311969
Ir        0.42149999999999   -0.81649999999999    0.91330000000000
H         0.87260000000000   -2.23030000000000    1.54050000000000
B         0.49338990668159    0.43072635416161   -0.76928937292552
O         0.15445916012565   -0.02666479974620   -2.03427700060321
C         0.00228539464281    1.09377239802229   -2.92290891561331
C         0.48373675348016    0.74334367585632   -4.32728345230794
H         1.49944925067231    0.36485511828257   -4.30990530009788
H         0.43612247276911    1.62304881587824   -4.96359153226558
H        -0.15825790732290   -0.02655186964837   -4.74648301501458
C        -1.50074525247461    1.40342041981825   -2.96490860694326
H        -1.72296099230655    2.21316023684522   -3.65254480618161
H        -2.02955749899234    0.50877868042996   -3.28610673438023
H        -1.84799642081051    1.65967102857409   -1.96631764727417
C         0.81988348303830    2.20616147930479   -2.19796249745098
O         0.75788436567375    1.78030563085104   -0.82672849853884
C         2.29944106583288    2.19852201287672   -2.59811524382633
H         2.70315086131602    1.20170208810872   -2.44378154764736
H         2.43652948578372    2.51475467868728   -3.62789264114665
H         2.84162408654913    2.87691620445334   -1.94437276587675
C         0.26453073981796    3.62069287831830   -2.33116689384113
H        -0.73415496348504    3.69407807808553   -1.91478685338195
H         0.90893368368141    4.30233300125396   -1.78320236293780
H         0.24703192528912    3.91808949838974   -3.37586187810064
B         1.56025223635576    0.65092994352551    1.84400847889444
O         2.92174614070378    0.62544165644811    2.06530598703444
C         3.35916935652865    1.92039404931737    2.49171748433789
C         4.52450773121820    1.79901604850844    3.46793846098169
H         4.27178570041694    1.15455751030173    4.30306770297394
H         5.37563180464448    1.36096548440363    2.95434074869801
H         4.80310429065517    2.78199414276692    3.83579988210800
C         3.80564419223278    2.62911109846415    1.20998177460012
H         4.20790942870903    3.61792308793694    1.40212992764108
H         4.56564384499149    2.01348593196587    0.73587812459465
H         2.95683850582881    2.67370411888559    0.53223201267986
C         2.05058089133110    2.52124783495285    3.08638077501244
O         1.03388200622165    1.82101096270017    2.35131875086218
C         1.88856377083733    4.02289412865687    2.89469336464756
H         1.85442967084326    4.26667080124932    1.83913423538683
H         0.95663445237666    4.34415438394934    3.35029054610232
H         2.71422776285652    4.54671709940023    3.36625426550120
C         1.84736674847519    2.15035524239191    4.56099583863181
H         1.95841603728695    1.07586595691587    4.68699719850087
H         2.55049010877455    2.67214898709550    5.20109725849870
H         0.83431628926731    2.41734925312825    4.85239302195862
B         2.27820000000002   -1.33089999999999    0.17410000000007
O         2.91179317763670   -2.54798933240169    0.38617532171502
C         4.26477184922918   -2.47841704979095   -0.09895058172998
C         5.14747212442626   -2.06202328843475    1.08223198352751
H         4.80902336557312   -1.09906865311219    1.45578803378175
H         5.03141807162556   -2.79075901728212    1.88004027106919
H         6.19396272583219   -2.01031386842372    0.80107493044723
C         4.71387085995099   -3.84144753425113   -0.61135931746586
H         4.74756236858679   -4.53461361090846    0.22392172766159
H         5.70688289573833   -3.76169117712200   -1.04290709951842
H         4.02595688527522   -4.23281015868107   -1.35185556889152
C         4.15797967902227   -1.35214718896144   -1.16867144805101
O         3.05812168175621   -0.56962664787191   -0.67288170014050
C         5.40136615407561   -0.48375994377957   -1.32338245708585
H         6.24918431946479   -1.09642078900353   -1.61473707769567
H         5.22343078121125    0.26237602653083   -2.09212675989391
H         5.62736800832380    0.03035390808095   -0.39662016690358
C         3.73169855123475   -1.89297957950218   -2.53943900267581
H         2.84276842235011   -2.50784651283788   -2.42669719069300
H         3.47539122413920   -1.05398958049133   -3.18093535004689
H         4.52826736001195   -2.46445824022740   -3.00430536370371
H        -3.38626121598161   -3.98066557720494   -2.56810234269938
H        -5.19061001420135    1.48047032087357    1.30157493324288
C         0.23590000000004   -1.68139999999984    2.96030000000010
C        -1.01274228893153   -2.09981389716057    3.44007465329357
C         1.28767893462699   -1.89210793081967    3.87185442280167
C        -1.20060099943024   -2.59407137451306    4.72365032752442
H        -1.87121112102534   -2.07829691585464    2.78273724999752
C         1.11432888775579   -2.32216875268675    5.17895617463234
Cl        2.94079962743158   -1.76436503057802    3.38885613936425
C        -0.14357870827646   -2.68787898288783    5.61329956223999
H        -2.17656283231576   -2.94802755592022    5.02348651220257
H         1.98630427885590   -2.43114096192908    5.80501130716593
H        -0.27227673396745   -3.08524980925485    6.60843576551523
96
 energy: -140.474010860191 gnorm: 0.037929496531 xtb: 6.4.0 (f63f532)
N        -0.93958719085265   -2.09287866548205   -0.26707165498901
C        -2.21567976386897   -1.68386265940305   -0.36810814359563
C        -3.12202784999832   -2.35495475228973   -1.19823377237529
C        -2.70719825643192   -3.45309425261395   -1.91719100325064
C        -1.38551446947195   -3.87120162190206   -1.79092463311236
C        -0.55162691721505   -3.15617838603511   -0.95918251876403
H         0.48062159938553   -3.44554412656463   -0.82482341478876
H        -1.01922603365088   -4.73039489433959   -2.32554054097488
H        -4.14125953038707   -2.02023716004754   -1.28563632381964
C        -2.58201492559488   -0.52034064844600    0.42711491444106
N        -1.59373928473625    0.05938683726389    1.13649385695487
C        -1.88514509810182    1.11859218954581    1.88165306287175
C        -3.14977773006936    1.66056241286757    1.98156857174818
C        -4.18152521937114    1.07293822703552    1.25664904203999
C        -3.88971834542652   -0.02109471108684    0.47279057042507
H        -4.67628055607585   -0.49036587795101   -0.09212181415129
H        -3.32815352089827    2.51332373518564    2.61363900005873
H        -1.05304789870325    1.54643477201583    2.41719435074333
Ir        0.42149999999999   -0.81649999999998    0.91330000000000
H         0.87260000000000   -2.23030000000000    1.54050000000000
B         0.48431474307225    0.44373433333612   -0.74887054925464
O         0.13057922061133   -0.01820392991840   -2.00801074456030
C        -0.00949514606585    1.09324970738450   -2.90250425281199
C         0.47781274792738    0.73558409100658   -4.30401980890034
H         1.49136346382232    0.35262585847901   -4.28376151003688
H         0.43453526856729    1.61726420704624   -4.93669762175568
H        -0.16751972859976   -0.03060870887100   -4.72381099215554
C        -1.51156094195489    1.41124566500797   -2.96074556697181
H        -1.71847407705103    2.21927670574950   -3.65394853594285
H        -2.04063361494843    0.51810996861643   -3.28430670998609
H        -1.86591971169695    1.67255871071590   -1.96641417985372
C         0.80843051288713    2.20852673585309   -2.18258371087066
O         0.75882777298508    1.78811681711195   -0.81380172990508
C         2.28570723231958    2.20592384917879   -2.59519870814241
H         2.69286156384021    1.21158531184615   -2.43562273353747
H         2.40988622960297    2.51498165008465   -3.62805004263684
H         2.82875173811730    2.89203371584606   -1.95088653136104
C         0.24927594229473    3.62214116266644   -2.32177608111906
H        -0.74660860863915    3.69869266248393   -1.90021697282565
H         0.89792996387026    4.30748214572047   -1.78416712525769
H         0.22661042317375    3.90652235060811   -3.36935984826892
B         1.56164780544346    0.67156330347357    1.82931923885603
O         2.92199800901714    0.65653176413931    2.02177087608061
C         3.35664087158178    1.93924045427856    2.47812112009203
C         4.52010634081484    1.80229769156284    3.45709795492084
H         4.26669983062378    1.14399894287577    4.28095706214109
H         5.37297262771823    1.37501780923899    2.93783620839420
H         4.79243126423681    2.78100153710760    3.83928906429747
C         3.81057588451707    2.67444143773910    1.21163973749016
H         4.20829637441900    3.66008742203307    1.42351793884065
H         4.57535382758381    2.06813031790950    0.73331495107905
H         2.96499796532535    2.72628986425323    0.53106095824438
C         2.04805456660153    2.52942923191420    3.08521308442510
O         1.02851662416848    1.82257056906338    2.36505756828366
C         1.88079794459976    4.03244648643054    2.89871673312943
H         1.83541765809696    4.28064377572670    1.84475014711300
H         0.95431769647611    4.35061070817635    3.36660029291695
H         2.71227916033170    4.55169822986899    3.36373383753579
C         1.86416040651136    2.15965153929603    4.56420993108009
H         1.98331413918493    1.08595084985239    4.68626332234127
H         2.57091076704219    2.68668147388119    5.19471391469777
H         0.85225623136670    2.41997732976852    4.86404974874371
B         2.27820000000004   -1.33089999999998    0.17410000000012
O         2.92040931263625   -2.53722083175816    0.39766907069860
C         4.26171217973664   -2.47351781979164   -0.10896583151786
C         5.16821858828510   -2.06281043221587    1.05798089293484
H         4.84146668899545   -1.09789782399825    1.43625759544493
H         5.06271022155515   -2.79058179361414    1.85750510442109
H         6.20820041501900   -2.01825424671820    0.75254860164648
C         4.70282345182133   -3.83844563621802   -0.62815445185751
H         4.74295639897102   -4.52975579794885    0.20775087205332
H         5.69193287155859   -3.75549498835113   -1.06639712873558
H         4.00976510006045   -4.23008960086209   -1.36314301567391
C         4.14882876100814   -1.34746484782977   -1.17821807376451
O         3.04202112772310   -0.57432965034135   -0.68845379868292
C         5.39069871830158   -0.47470286552246   -1.33029529596036
H         6.23738511442068   -1.09092770320864   -1.61533861001485
H         5.21473026463384    0.26652391228959   -2.10345357309398
H         5.61296423311730    0.04354552803710   -0.40540692374620
C         3.73496104752212   -1.89074841213878   -2.55296344424160
H         2.84753106544651   -2.50752203379919   -2.44451534867290
H         3.48246960302662   -1.05283545126717   -3.19668673270509
H         4.53885503014345   -2.45896233697944   -3.00730143824961
H        -3.39196130979512   -3.97808303531927   -2.56331437880954
H        -5.18599607141991    1.46198996659644    1.30660047832119
C         0.23590000000007   -1.68139999999972    2.96030000000016
C        -1.03066317896672   -2.07238596745657    3.41803766618201
C         1.26971822839634   -1.89021032715128    3.89033598315006
C        -1.25125065187671   -2.55028394741348    4.70236459627244
H        -1.87780759007422   -2.03537710712454    2.74637458183164
C         1.06583887005486   -2.32163933860047    5.19246967373611
Cl        2.92816574342730   -1.73923222983248    3.42529226958811
C        -0.20738025006708   -2.66353609677705    5.60575253132037
H        -2.24225931566597   -2.87360046676959    4.99130069234932
H         1.92294948955432   -2.44105132765004    5.83727649609878
H        -0.36327247256508   -3.05154587415585    6.60132137661353
96
 energy: -140.476214995250 gnorm: 0.036779451011 xtb: 6.4.0 (f63f532)
N        -0.92748058958100   -2.09535293708436   -0.27600293490322
C        -2.20482444723823   -1.68447203538462   -0.37332648290980
C        -3.11553394015218   -2.35495702787119   -1.20069833043805
C        -2.70579790300508   -3.45360051215073   -1.92186797732394
C        -1.38189653795427   -3.87159049733885   -1.80298808062068
C        -0.54300838819385   -3.15733840877277   -0.97401402310935
H         0.49079738870691   -3.44767976268838   -0.84883105076558
H        -1.01902336150912   -4.73091583930790   -2.34062020425517
H        -4.13510852147084   -2.01805286159848   -1.28147104540308
C        -2.56964624703621   -0.52209192651730    0.42222446087592
N        -1.58116625212482    0.05853994598370    1.13426689502452
C        -1.87623589732778    1.11694687943049    1.88182136077843
C        -3.14331503439778    1.65381881868709    1.98419053027063
C        -4.17508974936387    1.06430522125357    1.25785641125056
C        -3.87905388115625   -0.02508826452101    0.46919379542499
H        -4.66339684732851   -0.49687822911314   -0.09760476582919
H        -3.32410421771401    2.50343977877883    2.62027927126204
H        -1.04646725859563    1.54920040567226    2.41848187163289
Ir        0.42149999999998   -0.81649999999998    0.91330000000000
H         0.87259999999999   -2.23030000000000    1.54050000000000
B         0.47785363660289    0.45799936465208   -0.73124902985352
O         0.10391290727793   -0.00746910841330   -1.98357392196025
C        -0.02599120925127    1.09684313439617   -2.88252730525251
C         0.46901968666605    0.72638053889345   -4.27894652128354
H         1.47988179568503    0.33537471641008   -4.24876196840595
H         0.43709199219569    1.60573229729678   -4.91646555372438
H        -0.17950942696939   -0.03771185218945   -4.69900038512031
C        -1.52669939907197    1.42322887403576   -2.95627812029336
H        -1.72039940894585    2.22969112850049   -3.65573624785516
H        -2.05733294542016    0.53139672923902   -3.28217421429281
H        -1.89190366099454    1.69184323986658   -1.96725617679841
C         0.79615289799487    2.21529678464194   -2.16825016733519
O         0.75824563655213    1.79951091984134   -0.80014151416128
C         2.27134747434626    2.21658771492386   -2.59191731977933
H         2.68534676024465    1.22571372735385   -2.42557289650980
H         2.38478803857299    2.51606028805719   -3.62920436050730
H         2.81555955329315    2.91318317466178   -1.95894558887711
C         0.23156417554013    3.62745594165294   -2.31055549974481
H        -0.76127593937012    3.70505047574170   -1.88064481426144
H         0.88387448868929    4.31973118806996   -1.78497134984720
H         0.19798461849444    3.90258768545199   -3.36098690998357
B         1.56112871195454    0.67780920272481    1.83213641094195
O         2.92681811544253    0.68477480242794    1.97890669277773
C         3.35609408429391    1.95947242018380    2.46179548000972
C         4.51915439762975    1.80458190792878    3.44026997922297
H         4.26549949467607    1.12737743875157    4.24964722480086
H         5.37614337544223    1.39250498983129    2.91399154769767
H         4.78577652247590    2.77690544710172    3.84558793377885
C         3.81463899547153    2.72903550838008    1.21465844794547
H         4.20461699130095    3.71272367736291    1.45532045502077
H         4.58899863082180    2.14044570379160    0.72769260540033
H         2.97480340031898    2.79608766697902    0.52758847670770
C         2.04751779169601    2.53710657715259    3.08688066695715
O         1.02463674313274    1.81878439248840    2.38458757507576
C         1.86814333844512    4.04088665691024    2.90316367856345
H         1.80637747320252    4.29393990513623    1.85036038471061
H         0.94780087925533    4.35618711637538    3.38704502412633
H         2.70525722684678    4.56271167372832    3.35727034079410