105
 energy: -151.583353737985 gnorm: 0.001127731020 xtb: 6.4.1 (1a32961)
N        -0.96510000000000   -2.11530000000019   -0.24090000000005
C        -2.24700000000000   -1.69840000000001   -0.36220000000009
C        -3.14039999999987   -2.36820000000006   -1.21200000000013
C        -2.70220000000005   -3.47559999999993   -1.93049999999990
C        -1.37779999999914   -3.89879999999946   -1.78760000000008
C        -0.54290000000022   -3.18670000000013   -0.93510000000014
H         0.49810000000002   -3.45630000000005   -0.78940000000004
H        -0.99570000000000   -4.76029999999984   -2.32770000000001
H        -4.16499999999998   -2.02890000000005   -1.31830000000002
C        -2.62130000000032   -0.50949999999931    0.44099999999951
N        -1.62600000000014    0.07330000000008    1.16020000000006
C        -1.89680000000002    1.15239999999999    1.91690000000000
C        -3.17230000000004    1.70330000000000    1.99650000000002
C        -4.20510000000003    1.11739999999996    1.26270000000007
C        -3.92609999999941    0.00249999999993    0.47820000000006
H        -4.71960000000002   -0.46420000000004   -0.09519999999999
H        -3.34629999999998    2.57510000000000    2.62069999999999
H        -1.04450000000000    1.57420000000005    2.43690000000003
Ir        0.42150000000000   -0.81650000000000    0.91330000000000
H         0.87260000000000   -2.23030000000000    1.54050000000000
B         0.50669999999999    0.41560000000002   -0.81539999999991
O         0.19500000000001   -0.04699999999999   -2.09150000000015
C         0.00649999999973    1.10039999999995   -2.95429999999992
C         0.49020000000181    0.74740000000014   -4.35780000000002
H         1.51609999999943    0.37379999999986   -4.33699999999998
H         0.44729999999999    1.62239999999987   -5.01670000000002
H        -0.14740000000008   -0.03389999999956   -4.78430000000000
C        -1.50120000000000    1.39560000000023   -2.96670000000068
H        -1.75370000000004    2.21460000000031   -3.64849999999992
H        -2.03200000000004    0.49449999999988   -3.28930000000008
H        -1.85169999999995    1.65210000000004   -1.96219999999994
C         0.84230000000081    2.20669999999998   -2.22039999999995
O         0.75200000000000    1.78259999999999   -0.83690000000005
C         2.32929999999982    2.18619999999997   -2.59900000000009
H         2.74129999999999    1.18499999999996   -2.45750000000002
H         2.48869999999996    2.51299999999999   -3.63180000000000
H         2.87199999999995    2.86270000000008   -1.93200000000005
C         0.28439999999995    3.62290000000009   -2.33660000000004
H        -0.72650000000000    3.69040000000001   -1.92909999999999
H         0.92129999999999    4.31480000000000   -1.77610000000006
H         0.26429999999997    3.94809999999999   -3.38319999999996
B         1.56300000000002    0.60960000000002    1.84840000000000
O         2.92780000000001    0.55229999999996    2.15019999999995
C         3.36330000000012    1.88660000000005    2.50259999999984
C         4.53140000000011    1.78590000000009    3.47740000000002
H         4.27910000000005    1.16090000000008    4.33689999999999
H         5.39390000000006    1.33790000000001    2.97340000000000
H         4.82390000000008    2.77869999999992    3.83819999999999
C         3.79700000000000    2.56849999999999    1.19669999999993
H         4.20020000000001    3.57090000000004    1.37679999999997
H         4.56739999999999    1.95560000000001    0.72109999999997
H         2.95239999999995    2.63260000000002    0.50539999999998
C         2.05040000000000    2.50089999999998    3.09320000000000
O         1.03750000000002    1.81620000000001    2.31910000000001
C         1.89100000000005    4.00450000000004    2.88649999999995
H         1.87289999999999    4.25439999999998    1.82409999999994
H         0.94939999999999    4.34259999999996    3.33169999999995
H         2.71080000000003    4.55150000000003    3.36629999999997
C         1.82469999999998    2.13200000000000    4.56520000000001
H         1.92610000000003    1.05329999999998    4.71319999999997
H         2.52610000000002    2.65280000000004    5.22539999999996
H         0.80629999999998    2.41579999999998    4.84900000000000
B         2.27819999999999   -1.33089999999998    0.17409999999998
O         2.89459999999998   -2.57740000000001    0.38449999999998
C         4.26929999999999   -2.48200000000013   -0.07210000000002
C         5.10900000000003   -2.05380000000001    1.14010000000000
H         4.76350000000001   -1.08740000000000    1.51749999999999
H         4.98050000000001   -2.79470000000000    1.93589999999996
H         6.17419999999998   -1.99289999999998    0.89299999999994
C         4.71950000000000   -3.84660000000002   -0.58470000000000
H         4.75280000000000   -4.56129999999998    0.24419999999994
H         5.72329999999999   -3.78369999999998   -1.02010000000000
H         4.03500000000000   -4.23599999999999   -1.34170000000002
C         4.16439999999999   -1.36220000000005   -1.16300000000003
O         3.08520000000001   -0.55030000000002   -0.65400000000000
C         5.40719999999998   -0.48869999999992   -1.31550000000001
H         6.27319999999995   -1.09010000000003   -1.61530000000007
H         5.23299999999997    0.26930000000000   -2.08589999999995
H         5.64269999999999    0.02650000000003   -0.38240000000004
C         3.71799999999996   -1.89830000000003   -2.53110000000009
H         2.82529999999991   -2.52159999999998   -2.42740000000002
H         3.46089999999996   -1.05250000000001   -3.17549999999998
H         4.50570000000001   -2.48289999999998   -3.01790000000004
H        -3.38500000000003   -4.00130000000008   -2.59309999999994
H        -5.21400000000001    1.52079999999996    1.29960000000005
C         0.23589999999993   -1.68140000000000    2.96030000000000
N        -0.97081339911020   -2.09818435582968    3.33964254665632
C         1.27623454555663   -1.53776174970229    3.88142037407611
C        -1.21336253563684   -2.31045036484017    4.64332245062220
C         1.01869003885769   -1.69244932973697    5.23119837408707
H         2.26976564206300   -1.30093987131031    3.52993714046449
C        -2.53956442847063   -2.83969129751123    5.00418073109401
C        -0.25599944510772   -2.07179674375473    5.62762388920780
H         1.79820020351296   -1.54030288530740    5.96824822405872
C        -2.69131948257880   -3.68265485400977    6.10863971991356
C        -3.66345116282472   -2.52081473105316    4.23911450444020
H        -0.49766000225682   -2.18747429932636    6.67480920587402
C        -3.94082451981713   -4.17735331904563    6.45046449522464
H        -1.82556735758926   -3.97053318458195    6.69094869805022
C        -4.91142571532966   -3.01482536376056    4.58802870358950
H        -3.53452140564364   -1.87976814141706    3.37586271693676
C        -5.05295781874316   -3.83907506563133    5.69513440440861
H        -4.04142013070417   -4.83209116731177    7.30733993446145
H        -5.77851144335982   -2.75680084265821    3.99428312833617
H        -6.02786614512106   -4.22308603922823    5.96664542810381
