105
 energy: -151.583947686553 gnorm: 0.074358106182 xtb: 6.4.1 (1a32961)
N        -0.96510000000000   -2.11530000000019   -0.24090000000005
C        -2.24700000000000   -1.69840000000001   -0.36220000000009
C        -3.14039999999987   -2.36820000000006   -1.21200000000013
C        -2.70220000000005   -3.47559999999993   -1.93049999999990
C        -1.37779999999914   -3.89879999999946   -1.78760000000008
C        -0.54290000000022   -3.18670000000013   -0.93510000000014
H         0.49810000000002   -3.45630000000005   -0.78940000000004
H        -0.99570000000000   -4.76029999999984   -2.32770000000001
H        -4.16499999999998   -2.02890000000005   -1.31830000000002
C        -2.62130000000032   -0.50949999999931    0.44099999999951
N        -1.62600000000014    0.07330000000008    1.16020000000006
C        -1.89680000000002    1.15239999999999    1.91690000000000
C        -3.17230000000004    1.70330000000000    1.99650000000002
C        -4.20510000000003    1.11739999999996    1.26270000000007
C        -3.92609999999941    0.00249999999993    0.47820000000006
H        -4.71960000000002   -0.46420000000004   -0.09519999999999
H        -3.34629999999998    2.57510000000000    2.62069999999999
H        -1.04450000000000    1.57420000000005    2.43690000000003
Ir        0.42150000000000   -0.81650000000000    0.91330000000000
H         0.87260000000000   -2.23030000000000    1.54050000000000
B         0.50669999999999    0.41560000000002   -0.81539999999991
O         0.19500000000001   -0.04699999999999   -2.09150000000015
C         0.00649999999973    1.10039999999995   -2.95429999999992
C         0.49020000000181    0.74740000000014   -4.35780000000002
H         1.51609999999943    0.37379999999986   -4.33699999999998
H         0.44729999999999    1.62239999999987   -5.01670000000002
H        -0.14740000000008   -0.03389999999956   -4.78430000000000
C        -1.50120000000000    1.39560000000023   -2.96670000000068
H        -1.75370000000004    2.21460000000031   -3.64849999999992
H        -2.03200000000004    0.49449999999988   -3.28930000000008
H        -1.85169999999995    1.65210000000004   -1.96219999999994
C         0.84230000000081    2.20669999999998   -2.22039999999995
O         0.75200000000000    1.78259999999999   -0.83690000000005
C         2.32929999999982    2.18619999999997   -2.59900000000009
H         2.74129999999999    1.18499999999996   -2.45750000000002
H         2.48869999999996    2.51299999999999   -3.63180000000000
H         2.87199999999995    2.86270000000008   -1.93200000000005
C         0.28439999999995    3.62290000000009   -2.33660000000004
H        -0.72650000000000    3.69040000000001   -1.92909999999999
H         0.92129999999999    4.31480000000000   -1.77610000000006
H         0.26429999999997    3.94809999999999   -3.38319999999996
B         1.56300000000002    0.60960000000002    1.84840000000000
O         2.92780000000001    0.55229999999996    2.15019999999995
C         3.36330000000012    1.88660000000005    2.50259999999984
C         4.53140000000011    1.78590000000009    3.47740000000002
H         4.27910000000005    1.16090000000008    4.33689999999999
H         5.39390000000006    1.33790000000001    2.97340000000000
H         4.82390000000008    2.77869999999992    3.83819999999999
C         3.79700000000000    2.56849999999999    1.19669999999993
H         4.20020000000001    3.57090000000004    1.37679999999997
H         4.56739999999999    1.95560000000001    0.72109999999997
H         2.95239999999995    2.63260000000002    0.50539999999998
C         2.05040000000000    2.50089999999998    3.09320000000000
O         1.03750000000002    1.81620000000001    2.31910000000001
C         1.89100000000005    4.00450000000004    2.88649999999995
H         1.87289999999999    4.25439999999998    1.82409999999994
H         0.94939999999999    4.34259999999996    3.33169999999995
H         2.71080000000003    4.55150000000003    3.36629999999997
C         1.82469999999998    2.13200000000000    4.56520000000001
H         1.92610000000003    1.05329999999998    4.71319999999997
H         2.52610000000002    2.65280000000004    5.22539999999996
H         0.80629999999998    2.41579999999998    4.84900000000000
B         2.27819999999999   -1.33089999999998    0.17409999999998
O         2.89459999999998   -2.57740000000001    0.38449999999998
C         4.26929999999999   -2.48200000000013   -0.07210000000002
C         5.10900000000003   -2.05380000000001    1.14010000000000
H         4.76350000000001   -1.08740000000000    1.51749999999999
H         4.98050000000001   -2.79470000000000    1.93589999999996
H         6.17419999999998   -1.99289999999998    0.89299999999994
C         4.71950000000000   -3.84660000000002   -0.58470000000000
H         4.75280000000000   -4.56129999999998    0.24419999999994
H         5.72329999999999   -3.78369999999998   -1.02010000000000
H         4.03500000000000   -4.23599999999999   -1.34170000000002
C         4.16439999999999   -1.36220000000005   -1.16300000000003
O         3.08520000000001   -0.55030000000002   -0.65400000000000
C         5.40719999999998   -0.48869999999992   -1.31550000000001
H         6.27319999999995   -1.09010000000003   -1.61530000000007
H         5.23299999999997    0.26930000000000   -2.08589999999995
H         5.64269999999999    0.02650000000003   -0.38240000000004
C         3.71799999999996   -1.89830000000003   -2.53110000000009
H         2.82529999999991   -2.52159999999998   -2.42740000000002
H         3.46089999999996   -1.05250000000001   -3.17549999999998
H         4.50570000000001   -2.48289999999998   -3.01790000000004
H        -3.38500000000003   -4.00130000000008   -2.59309999999994
H        -5.21400000000001    1.52079999999996    1.29960000000005
C         0.23589999999993   -1.68140000000000    2.96030000000000
N        -0.97081339911020   -2.09818435582968    3.33964254665632
C         1.27623454555663   -1.53776174970229    3.88142037407611
C        -1.21336253563684   -2.31045036484017    4.64332245062220
C         1.01869003885769   -1.69244932973697    5.23119837408707
H         2.26976564206300   -1.30093987131031    3.52993714046449
C        -2.53956442847063   -2.83969129751123    5.00418073109401
C        -0.25599944510772   -2.07179674375473    5.62762388920780
H         1.79820020351296   -1.54030288530740    5.96824822405872
C        -2.69131948257880   -3.68265485400977    6.10863971991356
C        -3.66345116282472   -2.52081473105316    4.23911450444020
H        -0.49766000225682   -2.18747429932636    6.67480920587402
C        -3.94082451981713   -4.17735331904563    6.45046449522464
H        -1.82556735758926   -3.97053318458195    6.69094869805022
C        -4.91142571532966   -3.01482536376056    4.58802870358950
H        -3.53452140564364   -1.87976814141706    3.37586271693676
C        -5.05295781874316   -3.83907506563133    5.69513440440861
H        -4.04142013070417   -4.83209116731177    7.30733993446145
H        -5.77851144335982   -2.75680084265821    3.99428312833617
H        -6.02786614512106   -4.22308603922823    5.96664542810381
105
 energy: -151.590609493694 gnorm: 0.044989999528 xtb: 6.4.1 (1a32961)
N        -0.95958603694134   -2.09872400908171   -0.25339523429594
C        -2.23828144680692   -1.69187130328368   -0.36107733500081
C        -3.13365201668759   -2.36290063075477   -1.20288563710845
C        -2.70401840982901   -3.46381663852667   -1.92009261304115
C        -1.38480785906623   -3.88351004565517   -1.78085108336570
C        -0.55373962054530   -3.16789187254397   -0.94048739664556
H         0.48034538280286   -3.44782668988015   -0.79262857278007
H        -1.00865581442805   -4.74335278976096   -2.31676799668329
H        -4.15412602086941   -2.02722845761745   -1.30680830012505
C        -2.60985043099408   -0.51679629939475    0.44144956859409
N        -1.61859288865345    0.06213703033826    1.15425925559549
C        -1.89778252725666    1.13452443887126    1.89884871862547
C        -3.16409698931813    1.68611040996579    1.98383534839437
C        -4.19460473337816    1.10246042725530    1.25635536408849
C        -3.91216490367783   -0.00500009760818    0.47764564745934
H        -4.70316440922478   -0.46780027974779   -0.09240909394660
H        -3.33906096168162    2.55070354479545    2.60889703928722
H        -1.05505706634787    1.55575598214785    2.42598681786428
Ir        0.42150000000000   -0.81650000000000    0.91330000000000
H         0.87260000000000   -2.23030000000000    1.54050000000000
B         0.48391129028731    0.42950968276666   -0.78595229314532
O         0.17517559830660   -0.03322298260332   -2.05892275839809
C         0.01083971742974    1.09649034209496   -2.94260343729596
C         0.49018681533997    0.74575432577493   -4.34734698425713
H         1.50912754659809    0.36901335544052   -4.32607868012536
H         0.44540464230095    1.62075371604874   -4.99651480521834
H        -0.14863593961087   -0.03030946444160   -4.76744562940807
C        -1.49328125947630    1.39875431022201   -2.97013763051233
H        -1.73141894344729    2.21126591943863   -3.65499710039816
H        -2.02287162297557    0.50125811260776   -3.28953284988564
H        -1.84021129809484    1.65382138905059   -1.96871609890872
C         0.83245257564205    2.20745459446504   -2.21289956411613
O         0.75496850533558    1.78410683134765   -0.83472420807937
C         2.31500588087768    2.19009046442029   -2.60038673943883
H         2.71865868432193    1.19085260239476   -2.44962924060018
H         2.46689798934226    2.51062471480208   -3.63039105376015
H         2.85756268312559    2.86504329287608   -1.93943888066848
C         0.28120295946966    3.62341555434257   -2.34137171785038
H        -0.72203528098779    3.69216185931006   -1.92897042376288
H         0.92075446518128    4.30722698970172   -1.78479993984566
H         0.26362252277150    3.93511390149213   -3.38579297535869
B         1.56465939371373    0.62450558492319    1.84391024769056
O         2.92466519692559    0.57017041994435    2.13128908150140
C         3.36386206331541    1.88999626736322    2.50755073264815
C         4.53297389731471    1.79001912067864    3.47909767623020
H         4.28012418397871    1.16179716300211    4.32922150048946
H         5.38802605981082    1.34528800680314    2.97168366759942
H         4.81619229499819    2.77984584130283    3.83588009256923
C         3.80037821874671    2.57648516678173    1.20938875755343
H         4.20198718040373    3.57196222560753    1.39340536757923
H         4.56391980718315    1.96383755723307    0.73296466420878
H         2.95193771580143    2.62816440124826    0.52832340362496
C         2.05371746048800    2.50757468886377    3.08803172570058
O         1.04065971624824    1.81274993989738    2.33426137284487
C         1.89470400840108    4.00947106607221    2.88818949116114
H         1.86906638426873    4.25233480713116    1.82977415357797
H         0.95693305638711    4.33787335784107    3.33464354913304
H         2.71529567631447    4.54555027705481    3.36440285057300
C         1.83275307558370    2.14429256199907    4.56065095246081
H         1.93360316802505    1.06872118584085    4.69902684659129
H         2.53391419571528    2.66544394400322    5.21005730130418
H         0.81809899379322    2.42277919301856    4.84473722611283
B         2.27819999999999   -1.33089999999998    0.17409999999998
O         2.90223244012718   -2.56126087847718    0.39277977222458
C         4.26613147730770   -2.48377987212983   -0.07720377600279
C         5.11068939323394   -2.05869006148657    1.12853507526143
H         4.75458827517153   -1.09816687256411    1.49882027540847
H         4.97900508832044   -2.79390992693826    1.92173227243510
H         6.16841722858777   -1.99875343817062    0.87676983986308
C         4.72031727253269   -3.84623616242656   -0.58664015544865
H         4.74978832121410   -4.55055431584312    0.24348177473905
H         5.71798545785150   -3.77501187906672   -1.01915490011617
H         4.03417212381569   -4.23354932081869   -1.33501772532977
C         4.16660542795930   -1.36118235474708   -1.15767434793364
O         3.07482854704088   -0.56412431257073   -0.66181697436111
C         5.40989765670132   -0.49294912648737   -1.31552945159927
H         6.26607281867223   -1.09881574745481   -1.61112558614332
H         5.23132403484596    0.25795614042977   -2.08396659767735
H         5.63760226974786    0.02196725741372   -0.38665823994412
C         3.72930784631740   -1.90072115790743   -2.52550696238527
H         2.83704172799784   -2.51580190597146   -2.41654259127240
H         3.47198459679539   -1.05917880653913   -3.16731111642167
H         4.51921676389141   -2.47804545179423   -3.00321283995279
H        -3.38352967847283   -3.98805056034990   -2.57845668677993
H        -5.19846217446854    1.50446918863587    1.29545967224052
C         0.23589999999993   -1.68139999999999    2.96029999999999
N        -0.96689080060929   -2.09671380754677    3.33910386282100
C         1.27825239991284   -1.53786891946619    3.88541990385457
C        -1.21363631339675   -2.30993739125249    4.63855643395717
C         1.01637149127108   -1.69344275880927    5.23276051501366
H         2.27068966489012   -1.30174831051614    3.53567436705575
C        -2.53996340280800   -2.83828447766410    4.99886519915729
C        -0.25836614253790   -2.07222401539250    5.62466101535378
H         1.79322066962551   -1.54247430970373    5.97103995073881
C        -2.69350816916007   -3.67968078559794    6.10175426069401
C        -3.66223884796805   -2.51963939138475    4.23654854723882
H        -0.50207470289357   -2.18798639196997    6.66980360117209
C        -3.94001306198402   -4.17290074294525    6.44372168144463
H        -1.83013565439528   -3.96812717759778    6.68382598974771
C        -4.90811743701853   -3.01137484491697    4.58378218738796
H        -3.53394716195872   -1.87944924818384    3.37580014436994
C        -5.05148704010379   -3.83468848580883    5.68973603273686
H        -4.04132210901002   -4.82601814245722    7.29964329902025
H        -5.77389708673410   -2.75257381904550    3.99104410241449
H        -6.02532475120243   -4.21741641289040    5.96086570769906
105
 energy: -151.592355356710 gnorm: 0.036534011573 xtb: 6.4.1 (1a32961)
N        -0.95063108899893   -2.09349231765819   -0.25896733231034
C        -2.22747940711914   -1.68948405569685   -0.35785877390942
C        -3.12868743884339   -2.35815491649119   -1.19437366757026
C        -2.70783779824200   -3.45522242445208   -1.91461140551759
C        -1.38910522077805   -3.87528011880972   -1.78078185998528
C        -0.55725248478347   -3.15972581697204   -0.94602488199722
H         0.47608628952268   -3.44304947237845   -0.80869824754545
H        -1.01932600981152   -4.73505180689057   -2.31487270530286
H        -4.14807306370793   -2.02387815904727   -1.28915969572187
C        -2.59540590228094   -0.52386922932458    0.44217152129860
N        -1.60802990310690    0.04931454291230    1.15774703821489
C        -1.89388422427530    1.11707945559165    1.89570486451013
C        -3.15530414616049    1.67151609943072    1.98001254003633
C        -4.18539762088794    1.08886351800602    1.25179889897715
C        -3.89777579894035   -0.01300046220992    0.47458460721559
H        -4.68542157432384   -0.47641952557800   -0.09506788194526
H        -3.33067030018974    2.53350053015588    2.60301579141581
H        -1.05744371252497    1.54402348458303    2.42530985601094
Ir        0.42150000000000   -0.81650000000000    0.91330000000000
H         0.87260000000000   -2.23030000000000    1.54050000000000
B         0.48924382754528    0.44294122924187   -0.76122005533767
O         0.15484171388814   -0.02219813434925   -2.02549341179502
C         0.00627765005076    1.09347862668092   -2.92131700611611
C         0.49054689179909    0.73530347349992   -4.32294204591896
H         1.50565468592129    0.35466480212262   -4.30233413300262
H         0.44622518041457    1.61280250089271   -4.96318139593146
H        -0.15249009435033   -0.03480181042879   -4.74087173811069
C        -1.49599166904730    1.40544217511229   -2.96953057651295
H        -1.71520993151130    2.21342390261228   -3.66112952295888
H        -2.02461878929779    0.50999630649247   -3.28931270748434
H        -1.84608799219670    1.66476715474531   -1.97264495741633
C         0.82479838001738    2.20825869322609   -2.20073198751974
O         0.75826021328334    1.79180475819291   -0.82649642636112
C         2.30485379253561    2.19462081851668   -2.59817786031520
H         2.70490228862119    1.19687836744742   -2.43921198564306
H         2.44366831551613    2.50622565397503   -3.62955239382915
H         2.84781976528274    2.87463749694530   -1.94645070774051
C         0.27116199990721    3.62257104958080   -2.34099905341273
H        -0.72792457677537    3.69745859686116   -1.92523170160127
H         0.91578728899275    4.30567896810909   -1.79459122204379
H         0.25436506886986    3.91637341519856   -3.38715077395252
B         1.56397117732068    0.62989084253873    1.85729059099359
O         2.92336883589055    0.58399314450097    2.11685342293533
C         3.36285390853267    1.89416525079372    2.50719918363865
C         4.53036633416848    1.79215948675602    3.48137965303935
H         4.28002553975662    1.15952588798863    4.32600908688937
H         5.38285496038551    1.35395103094434    2.96980606395086
H         4.80439684977708    2.78120587196721    3.83688238383025
C         3.80477449882015    2.59235501805173    1.21745054039037
H         4.20355144375408    3.58374997493386    1.40903926236870
H         4.56722296203031    1.98186813099053    0.74121928248581
H         2.95504290200212    2.63829461609432    0.54073332040964
C         2.05558548696174    2.51176292133538    3.08750688580357
O         1.04321219046373    1.80895546347634    2.34944042218500
C         1.89838828501129    4.01338483597340    2.88428670374919
H         1.86465436578721    4.25402975740240    1.82782200887295
H         0.96569984090962    4.33818341164630    3.33706951044218
H         2.72256766822372    4.54095766242197    3.35563661498025
C         1.84479046899228    2.15909438034722    4.56497722681164
H         1.94687693905100    1.08523516902853    4.69954740564816
H         2.54910934298542    2.68432721504568    5.20204451569337
H         0.83244124715309    2.43607902592087    4.84980897516184
B         2.27819999999999   -1.33089999999998    0.17409999999997
O         2.90542119731940   -2.54891070529848    0.40311132684782
C         4.25967476170173   -2.48235939869369   -0.07678121246817
C         5.11595178820805   -2.06048837405956    1.12149569544614
H         4.75519650702157   -1.10247674071211    1.48803725082205
H         4.98485772080033   -2.79380950492617    1.91296655015610
H         6.16801917994425   -2.00198026347738    0.86077211076925
C         4.71213284926040   -3.84496391672366   -0.58848529322971
H         4.74401531088051   -4.54249141418088    0.24344587625382
H         5.70561996426984   -3.76521041386007   -1.02031889210800
H         4.02541798020049   -4.23398656336909   -1.33189968504434
C         4.16211482722256   -1.36240240126969   -1.15596961986754
O         3.06290242784887   -0.57434863704928   -0.67099358506726
C         5.40692310282162   -0.49597387501351   -1.31039978457817
H         6.25537023471419   -1.10937844759547   -1.59994449522858
H         5.22976159381739    0.24770688037002   -2.08220644457325
H         5.63125358062385    0.02179326012635   -0.38502919261530
C         3.73955929887072   -1.90648448086646   -2.52716848791474
H         2.84820364004630   -2.51854226026955   -2.41686132940838
H         3.48592955289013   -1.06707897691656   -3.16974274324483
H         4.53563083748184   -2.47981859354373   -2.99169384480080
H        -3.38935471651474   -3.97842677839473   -2.56723490308797
H        -5.18731869544780    1.48835436044543    1.29140870674931
C         0.23589999999993   -1.68139999999997    2.96029999999999
N        -0.96377551007307   -2.09566304445912    3.33709182526426
C         1.27952678769452   -1.53572514466461    3.88849095953978
C        -1.21511084717356   -2.30872527135933    4.63347063157492
C         1.01324985534821   -1.69296490349377    5.23381012917900
H         2.27124621201732   -1.29920273253241    3.53962743683808
C        -2.54159994681317   -2.83552123687214    4.99146959672679
C        -0.26231776372491   -2.07204532812373    5.62192596924133
H         1.78772153246187   -1.54370573621891    5.97418438235300
C        -2.69699593285184   -3.67664514407920    6.09304600048531
C        -3.66216824052234   -2.51561153223882    4.22959821048214
H        -0.50853084288714   -2.18873723779132    6.66562251018441
C        -3.94276879198780   -4.16767861424342    6.43453691158853
H        -1.83509376927582   -3.96661488781735    6.67513481153541
C        -4.90795971105901   -3.00494775912955    4.57521237985023
H        -3.53327152815148   -1.87561839771196    3.37005183485841
C        -5.05381869990120   -3.82811406997079    5.68062510448524
H        -4.04555252726957   -4.81993643995144    7.28984856994794
H        -5.77251410321522   -2.74475222249996    3.98252647137309
H        -6.02751767774963   -4.20913114463057    5.95105788105891
105
 energy: -151.593021658753 gnorm: 0.036150315880 xtb: 6.4.1 (1a32961)
N        -0.93920175043749   -2.09119826234391   -0.26931327961949
C        -2.21783201326725   -1.68942411095047   -0.35825042309987
C        -3.12564591297522   -2.35893274775198   -1.18808195970234
C        -2.71105182518799   -3.45527344641563   -1.91158828917442
C        -1.38998553859821   -3.87475219050823   -1.78661026042150
C        -0.55246179366460   -3.15695502893259   -0.95906274480322
H         0.48155366820198   -3.44321918957133   -0.83019053014357
H        -1.02487765088900   -4.73509378986919   -2.32182032204663
H        -4.14564365596414   -2.02449391285469   -1.27379642361329
C        -2.58382976476352   -0.52837823858846    0.44312882795502
N        -1.59736661606639    0.04416044576442    1.16079363298160
C        -1.88713609146101    1.10984590352063    1.89896297752966
C        -3.14859085358561    1.66356602957086    1.98310356154263
C        -4.17870140366313    1.08037662416621    1.25261026998108
C        -3.88753054611482   -0.01920016900895    0.47499864782752
H        -4.67224053749497   -0.48279996237054   -0.09813395724860
H        -3.32519053088485    2.52404628104219    2.60657424668503
H        -1.05487824521965    1.53817402514550    2.43467652919364
Ir        0.42150000000000   -0.81650000000000    0.91330000000000
H         0.87260000000000   -2.23030000000000    1.54050000000000
B         0.47248489001373    0.46067115859189   -0.73908668887114
O         0.13141537270505   -0.01198551286594   -1.99870398909782
C        -0.00338981649502    1.09367975420460   -2.90310838746593
C         0.48895539580922    0.72252552948751   -4.29943071379252
H         1.50137403742914    0.33562949860508   -4.27160179173808
H         0.45236059060938    1.59889748205233   -4.94097288638563
H        -0.15738882182991   -0.04507307379383   -4.71632241869565
C        -1.50436900321327    1.41406463728719   -2.96895255933947
H        -1.70817153295362    2.21912742040540   -3.66799399013420
H        -2.03373309357821    0.51965392166667   -3.28963445868490
H        -1.86311241806026    1.68111815738272   -1.97735913956442
C         0.81632366393115    2.21144689129814   -2.18827964545811
O         0.75742432900964    1.80413949298331   -0.81427718269806
C         2.29495606331076    2.19803089433035   -2.59455387850860
H         2.69656906015607    1.20226813523551   -2.42780498716203
H         2.42485860136872    2.50004832004528   -3.62953350993038
H         2.83941825858887    2.88593953535079   -1.95266520461761
C         0.26178877245252    3.62539220199825   -2.33883826218620
H        -0.73522078654221    3.70527219976120   -1.91948110576239
H         0.91020804220801    4.31353035692359   -1.80348349408911
H         0.24086145942045    3.90484694551101   -3.38858290498561
B         1.56539103282930    0.64038418540039    1.85211260846717
O         2.92387842122499    0.59560850312365    2.10162393592901
C         3.36322658629259    1.89971484079705    2.50471537856822
C         4.52936236348613    1.79284268654669    3.48178958716049
H         4.27967871989031    1.15413443629957    4.32183612326606
H         5.38373439205851    1.36113279202437    2.96817739891375
H         4.79772656471765    2.78109720141170    3.84283379498345
C         3.81029178537389    2.60915522580077    1.22178223997637
H         4.20552415586772    3.59931008299418    1.42364047070066
H         4.57617318064269    2.00353841031206    0.74501422813193
H         2.96251419080660    2.65729936285739    0.54321533899037
C         2.05649466563263    2.51574428595578    3.08812316981270
O         1.04206951659666    1.80766198255929    2.36152467167326
C         1.89812844305999    4.01770595709006    2.88111275734175
H         1.85622270394968    4.25623534966586    1.82454595070838
H         0.96993969666286    4.34433006668215    3.34139705656061
H         2.72777408353606    4.54292777971982    3.34471191285146
C         1.85700629797146    2.17264618636314    4.57066563393849
H         1.96129898207469    1.09980957304317    4.70958244081470
H         2.56593188998771    2.70345888172471    5.19728846398789
H         0.84656554982477    2.45078340460008    4.86016617399130
B         2.27819999999999   -1.33089999999999    0.17409999999996
O         2.90768790710865   -2.54216446206766    0.41437082677667
C         4.25542486443508   -2.48174918405318   -0.07505565361630
C         5.12247073844870   -2.06082008453874    1.11702254686423
H         4.76375746145663   -1.10259522819489    1.48445249392771
H         4.99537865329639   -2.79402559020557    1.90888841021029
H         6.17175708552802   -2.00380178865315    0.84735942063283
C         4.70332099728045   -3.84663280486837   -0.58766348174652
H         4.73913053593362   -4.54198479905009    0.24561676865474
H         5.69433635995889   -3.76470251702643   -1.02368151233186
H         4.01330916660142   -4.23660717426104   -1.32730716730539
C         4.15829377971116   -1.36432215345198   -1.15682877370228
O         3.05367190626533   -0.58061805843486   -0.68160606094007
C         5.40325625171898   -0.49625566862836   -1.30691265422309
H         6.25111845640500   -1.11369778258288   -1.58844218967789
H         5.23026381324751    0.24294651241638   -2.08367018669678
H         5.62273759671818    0.02554449248754   -0.38286329460776
C         3.74852315018853   -1.91310355579481   -2.53109425095920
H         2.85764734739114   -2.52613917644184   -2.42566263711093
H         3.50013086157565   -1.07542465134620   -3.17773958685519
H         4.55094046688287   -2.48555748571632   -2.98455622994717
H        -3.39682764226345   -3.97753050868622   -2.56004610393887
H        -5.18094795613458    1.47804423122436    1.29139535558124
C         0.23589999999992   -1.68139999999995    2.96029999999998
N        -0.96290855268606   -2.09502545886814    3.33444212770842
C         1.27924602317968   -1.53399230352173    3.89050407528034
C        -1.21777469475979   -2.30723645084374    4.62981033833746
C         1.00961688543604   -1.69189474197543    5.23463925630947
H         2.27090141056587   -1.29660730681526    3.54252221529166
C        -2.54495904676951   -2.83223770070655    4.98452966391703
C        -0.26700636745077   -2.07118604934457    5.62020395404619
H         1.78219451112523   -1.54336973633868    5.97721938345741
C        -2.70271649112097   -3.67414931261438    6.08496601821468
C        -3.66362901157688   -2.51006170748523    4.22105305543059
H        -0.51533295291617   -2.18846603353068    6.66321372545870
C        -3.94957923506595   -4.16296060081483    6.42473897328855
H        -1.84171321760576   -3.96635179469542    6.66727364165992
C        -4.91069358108090   -2.99736888360147    4.56476661009656
H        -3.53277781191346   -1.86970882713456    3.36196809001952
C        -5.05945083020435   -3.82080332076749    5.66976207719523
H        -4.05456481780354   -4.81542091791570    7.27948654367129
H        -5.77401394146684   -2.73534611994092    3.97118545466531
H        -6.03397621233835   -4.19993618439809    5.93902385488475
105
 energy: -151.593766086732 gnorm: 0.037200651454 xtb: 6.4.1 (1a32961)
N        -0.92467778322780   -2.09358576926001   -0.28050256075570
C        -2.20613987176828   -1.69370064809661   -0.35721147374609
C        -3.12142144520058   -2.36457936912297   -1.17945254297412
C        -2.71370958206745   -3.45945225579259   -1.90850509691273
C        -1.38877604721451   -3.87606793565549   -1.79805204397077
C        -0.54355510360675   -3.15673055641042   -0.97825781304275
H         0.49315940534301   -3.44270636027943   -0.86466742928918
H        -1.02872512355813   -4.73594102289315   -2.33770357516306
H        -4.14311600914779   -2.03112465287701   -1.25189907094170
C        -2.56977915749201   -0.53628483240452    0.44703540245706
N        -1.58414266823896    0.03346653550602    1.17095608601609
C        -1.87738422788185    1.09777747106456    1.91161394976339
C        -3.13890693431068    1.65219336550243    1.99281200554503
C        -4.16847239215287    1.07099269614261    1.25667140228227
C        -3.87386109747372   -0.02543894519893    0.47663092814017
H        -4.65533038791635   -0.48816801668697   -0.10201027385866
H        -3.31691732683891    2.51086386898385    2.61830828916782
H        -1.04926320763341    1.52721226823102    2.45406542780396
Ir        0.42150000000000   -0.81650000000000    0.91330000000000
H         0.87260000000000   -2.23030000000000    1.54050000000000
B         0.46684302206518    0.48200584708000   -0.71237933187706
O         0.09587802124764    0.00337696742412   -1.96182630108041