17
 energy: -27.715996955130 gnorm: 0.000103251638 xtb: 6.4.1 (1a32961)
C        -0.89412140020902    1.41371728746452   -0.00007415728502
C         0.28074626021799    0.68722367886560    0.00043833394217
C         0.29943451101965   -0.72124407464343    0.00001604355130
N         1.61964983262296   -1.12462517179459    0.00076536707931
C         2.31141054439684   -0.03790138701731    0.00154728406828
O         1.57548019950581    1.11064707122553    0.00142906724895
C         3.78581940832569    0.06739932634060    0.00242967350468
C        -0.88792573886301   -1.43981956372924   -0.00098376594244
C        -2.06349953678908   -0.71407628695389   -0.00148807727441
C        -2.06808468340206    0.68077651586396   -0.00104756891136
H        -0.88916942736420    2.49149241866096    0.00029225683001
H         4.21129261945677   -0.93038517877009    0.00238243624442
H         4.11682289226898    0.61374816366621    0.88398640913925
H         4.11778617664581    0.61424355146734   -0.87845964510781
H        -0.87916435778061   -2.51711999181124   -0.00135246184907
H        -3.00692102287123   -1.23858480609789   -0.00224937683218
H        -3.01198627718132    1.20376844726295   -0.00145181840606
