17
 energy: -27.712418582260 gnorm: 0.068377898972 xtb: 6.4.1 (1a32961)
C        -0.87560000000000    1.41211000000000    0.00011000000000
C         0.28378000000000    0.64545000000000    0.00087000000000
C         0.31278000000000   -0.73988000000000    0.00038000000000
N         1.61125000000000   -1.18078000000000    0.00106000000000
C         2.31558000000000   -0.06503000000000    0.00153000000000
O         1.57542000000000    1.08824000000000    0.00192000000000
C         3.78287000000000    0.09421000000000    0.00231000000000
C        -0.89756000000000   -1.44401000000000   -0.00077000000000
C        -2.09237000000000   -0.70759000000000   -0.00159000000000
C        -2.07852000000000    0.69340000000000   -0.00127000000000
H        -0.84651000000000    2.49434000000000    0.00032000000000
H         4.27359000000000   -0.88386000000000    0.00187000000000
H         4.11033000000000    0.64052000000000    0.89153000000000
H         4.11082000000000    0.64141000000000   -0.88625000000000
H        -0.90204000000000   -2.52809000000000   -0.00123000000000
H        -3.04337000000000   -1.23653000000000   -0.00253000000000
H        -3.02288000000000    1.23535000000000   -0.00208000000000
17
 energy: -27.715499547475 gnorm: 0.025602872989 xtb: 6.4.1 (1a32961)
C        -0.88302512338752    1.41087081819335    0.00001196510566
C         0.27893188391429    0.66173026640103    0.00073333526058
C         0.30322079287771   -0.73523197216057    0.00030585091244
N         1.61535570518600   -1.15243070334665    0.00092488673703
C         2.31345604875606   -0.05694764251400    0.00171311133446
O         1.57498966632396    1.09090430881978    0.00166745311660
C         3.78283679827437    0.08075503449744    0.00233495535435
C        -0.89702834114017   -1.44270068109044   -0.00082159533168
C        -2.07211791623036   -0.70805821183737   -0.00152829052141
C        -2.06686323479898    0.68775177965323   -0.00115344724037
H        -0.86188402783244    2.48827610730670    0.00030409631582
H         4.25122630522633   -0.90196590805839    0.00194645106438
H         4.10250262520895    0.63434894815592    0.88531407424921
H         4.10302176712413    0.63523813174931   -0.87993529092124
H        -0.90215598618845   -2.52162242201084   -0.00123282761410
H        -3.01712623664115   -1.23252854433849   -0.00250820622770
H        -3.00777072667275    1.22087069058000   -0.00189652159402
17
 energy: -27.715939546800 gnorm: 0.005460293025 xtb: 6.4.1 (1a32961)
C        -0.88882153878013    1.41185269597007   -0.00003854515723
C         0.27943784341239    0.67556416241758    0.00060542640524
C         0.29946877475208   -0.73031445169213    0.00020088419600
N         1.61928960951444   -1.13445298182595    0.00093910270150
C         2.31173520840731   -0.04870293339865    0.00164871977257
O         1.57626186449258    1.09871620518439    0.00158508803249
C         3.78407410578450    0.07254995839716    0.00234831908910
C        -0.89358134163908   -1.44238308496503   -0.00088712680124
C        -2.06349068819238   -0.71065564794636   -0.00154626432752
C        -2.06465933956474    0.68429784813320   -0.00113997704516
H        -0.87438544109953    2.48855109304785    0.00031277803776
H         4.23011661298293   -0.91665114872767    0.00206921779807
H         4.10475108782519    0.62585641103698    0.88336606113393
H         4.10541232107583    0.62667156395413   -0.87791963199954
H        -0.89435814317083   -2.51944513873602   -0.00123980509180
H        -3.00746504429402   -1.23296138154484   -0.00242767474282
H        -3.00621589150653    1.21076683069528   -0.00169657200134
17
 energy: -27.715979030609 gnorm: 0.002779797083 xtb: 6.4.1 (1a32961)
C        -0.89101024352794    1.41258597173148   -0.00005775759269
C         0.28046798512667    0.68072228122748    0.00052745074417
C         0.29931647725106   -0.72723848007447    0.00013524075926
N         1.61989911702932   -1.13028338965444    0.00084835694340
C         2.31147869356896   -0.04441497724152    0.00161680821118
O         1.57640195838506    1.10387648229114    0.00148967817855
C         3.78515572060319    0.07050392206698    0.00238640753369
C        -0.89126711018810   -1.44176241227016   -0.00090503696680
C        -2.06338572986377   -0.71210497122102   -0.00149802937984
C        -2.06620494403595    0.68294764996175   -0.00108554512801
H        -0.87986524827628    2.48988065389534    0.00029076447107
H         4.22202989813111   -0.92238132465514    0.00215460100083
H         4.10948362137573    0.62114966934831    0.88368043062845
H         4.11024746306216    0.62192093286364   -0.87814497129615
H        -0.88845620148663   -2.51894537032502   -0.00126750521787
H        -3.00772043998055   -1.23458031291775   -0.00237464964767
H        -3.00900101717403    1.20738367497341   -0.00161624324159
17
 energy: -27.715995330994 gnorm: 0.001085195964 xtb: 6.4.1 (1a32961)
C        -0.89339928676690    1.41332450099901   -0.00008175669388
C         0.28110739206668    0.68601064084552    0.00045032352937
C         0.29932288047230   -0.72305048716597    0.00004719040046
N         1.61996211975354   -1.12610176325590    0.00079707976746
C         2.31131171986943   -0.03946751071874    0.00156306441335
O         1.57587876316950    1.10943179201788    0.00143331225199
C         3.78606014932122    0.06830931629620    0.00242010643088
C        -0.88862117931508   -1.44047126396621   -0.00095717491145
C        -2.06368432227883   -0.71366012140417   -0.00148734534061
C        -2.06795253142098    0.68130907943909   -0.00106348552954
H        -0.88642687766909    2.49120620516196    0.00027612766591
H         4.21370732593757   -0.92852837863700    0.00227312668130
H         4.11530605859561    0.61555175607371    0.88406855160061
H         4.11620845716398    0.61621716205784   -0.87847917347075
H        -0.88141084202737   -2.51784533107538   -0.00131027015167
H        -3.00788047353517   -1.23710083679707   -0.00227257456005
H        -3.01191935333640    1.20412524012921   -0.00149710208341
17
 energy: -27.715996777484 gnorm: 0.000472559978 xtb: 6.4.1 (1a32961)
C        -0.89409095522772    1.41359925222624   -0.00007701143040
C         0.28090447408944    0.68731229972249    0.00043084206325
C         0.29938235637100   -0.72139480105569    0.00002483154517
N         1.61972270966358   -1.12475594679111    0.00075426725479
C         2.31136179165069   -0.03796442462856    0.00154773334714
O         1.57546854334897    1.11074190503784    0.00141065862453
C         3.78597440445038    0.06751786596338    0.00243235392648
C        -0.88788974132586   -1.43984339801970   -0.00095805343182
C        -2.06363303741592   -0.71407670578061   -0.00145972310412
C        -2.06820820639513    0.68077304352473   -0.00103211868503
H        -0.88881886201781    2.49147299908476    0.00027583726118
H         4.21140545512089   -0.93027363965527    0.00233784206087
H         4.11689117288056    0.61376554461659    0.88407590173475
H         4.11784313796426    0.61434377627056   -0.87849674134639
H        -0.87923764730315   -2.51719457697609   -0.00134234826046
H        -3.00727271218918   -1.23833768111816   -0.00226650576475
H        -3.01223288366500    1.20357448757859   -0.00147776579517
17
 energy: -27.715996955053 gnorm: 0.000103199511 xtb: 6.4.1 (1a32961)
C        -0.89412140020902    1.41371728746452   -0.00007415728502
C         0.28074626021799    0.68722367886560    0.00043833394217
C         0.29943451101965   -0.72124407464343    0.00001604355130
N         1.61964983262296   -1.12462517179459    0.00076536707931
C         2.31141054439684   -0.03790138701731    0.00154728406828
O         1.57548019950581    1.11064707122553    0.00142906724895
C         3.78581940832569    0.06739932634060    0.00242967350468
C        -0.88792573886301   -1.43981956372924   -0.00098376594244
C        -2.06349953678908   -0.71407628695389   -0.00148807727441
C        -2.06808468340206    0.68077651586396   -0.00104756891136
H        -0.88916942736420    2.49149241866096    0.00029225683001
H         4.21129261945677   -0.93038517877009    0.00238243624442
H         4.11682289226898    0.61374816366621    0.88398640913925
H         4.11778617664581    0.61424355146734   -0.87845964510781
H        -0.87916435778061   -2.51711999181124   -0.00135246184907
H        -3.00692102287123   -1.23858480609789   -0.00224937683218
H        -3.01198627718132    1.20376844726295   -0.00145181840606
