      -----------------------------------------------------------      
     |                   =====================                   |     
     |                           x T B                           |     
     |                   =====================                   |     
     |                         S. Grimme                         |     
     |          Mulliken Center for Theoretical Chemistry        |     
     |                    University of Bonn                     |     
      -----------------------------------------------------------      

   * xtb version 6.4.1 (1a32961) compiled by 'knkr256@seskscpg007.prim.scp' on 2021-10-19

   xtb is free software: you can redistribute it and/or modify it under
   the terms of the GNU Lesser General Public License as published by
   the Free Software Foundation, either version 3 of the License, or
   (at your option) any later version.
   
   xtb is distributed in the hope that it will be useful,
   but WITHOUT ANY WARRANTY; without even the implied warranty of
   MERCHANTABILITY or FITNESS FOR A PARTICULAR PURPOSE.  See the
   GNU Lesser General Public License for more details.
   
   Cite this work as:
   * C. Bannwarth, E. Caldeweyher, S. Ehlert, A. Hansen, P. Pracht,
     J. Seibert, S. Spicher, S. Grimme, WIREs Comput. Mol. Sci., 2020, 11,
     e01493. DOI: 10.1002/wcms.1493
   
   for GFN2-xTB:
   * C. Bannwarth, S. Ehlert and S. Grimme., J. Chem. Theory Comput., 2019,
     15, 1652-1671. DOI: 10.1021/acs.jctc.8b01176
   for GFN1-xTB:
   * S. Grimme, C. Bannwarth, P. Shushkov, J. Chem. Theory Comput., 2017,
     13, 1989-2009. DOI: 10.1021/acs.jctc.7b00118
   for GFN0-xTB:
   * P. Pracht, E. Caldeweyher, S. Ehlert, S. Grimme, ChemRxiv, 2019, preprint.
     DOI: 10.26434/chemrxiv.8326202.v1
   for GFN-FF:
   * S. Spicher and S. Grimme, Angew. Chem. Int. Ed., 2020, 59, 15665-15673.
     DOI: 10.1002/anie.202004239
   
   for ALPB and GBSA implicit solvation:
   * S. Ehlert, M. Stahn, S. Spicher, S. Grimme, J. Chem. Theory Comput.,
     2021, 17, 4250-4261. DOI: 10.1021/acs.jctc.1c00471
   
   for DFT-D4:
   * E. Caldeweyher, C. Bannwarth and S. Grimme, J. Chem. Phys., 2017,
     147, 034112. DOI: 10.1063/1.4993215
   * E. Caldeweyher, S. Ehlert, A. Hansen, H. Neugebauer, S. Spicher,
     C. Bannwarth and S. Grimme, J. Chem. Phys., 2019, 150, 154122.
     DOI: 10.1063/1.5090222
   * E. Caldeweyher, J.-M. Mewes, S. Ehlert and S. Grimme, Phys. Chem. Chem. Phys.
     2020, 22, 8499-8512. DOI: 10.1039/D0CP00502A
   
   for sTDA-xTB:
   * S. Grimme and C. Bannwarth, J. Chem. Phys., 2016, 145, 054103.
     DOI: 10.1063/1.4959605
   
   in the mass-spec context:
   * V. Asgeirsson, C. Bauer and S. Grimme, Chem. Sci., 2017, 8, 4879.
     DOI: 10.1039/c7sc00601b
   * J. Koopman and S. Grimme, ACS Omega 2019, 4, 12, 15120-15133.
     DOI: 10.1021/acsomega.9b02011
   
   for metadynamics refer to:
   * S. Grimme, J. Chem. Theory Comput., 2019, 155, 2847-2862
     DOI: 10.1021/acs.jctc.9b00143
   
   for SPH calculations refer to:
   * S. Spicher and S. Grimme, J. Chem. Theory Comput., 2021, 17, 1701-1714
     DOI: 10.1021/acs.jctc.0c01306
   
   with help from (in alphabetical order)
   P. Atkinson, C. Bannwarth, F. Bohle, G. Brandenburg, E. Caldeweyher
   M. Checinski, S. Dohm, S. Ehlert, S. Ehrlich, I. Gerasimov, J. Koopman
   C. Lavigne, S. Lehtola, F. März, M. Müller, F. Musil, H. Neugebauer
   J. Pisarek, C. Plett, P. Pracht, J. Seibert, P. Shushkov, S. Spicher
   M. Stahn, M. Steiner, T. Strunk, J. Stückrath, T. Rose, and J. Unsleber
   
 * started run on 2022/01/14 at 13:50:31.424     

           -------------------------------------------------
          |                Calculation Setup                |
           -------------------------------------------------

          program call               : xtb xtbopt.xyz --sp --alpb thf -P 6
          hostname                   : seskscpg007.prim.scp
          coordinate file            : xtbopt.xyz
          omp threads                :                     6
          number of atoms            :                    93
          number of electrons        :                   258
          charge                     :                     0
          spin                       :                   0.0
          first test random number   :      0.53523776004799

   ID    Z sym.   atoms
    1    7 N      1, 11
    2    6 C      2-6, 10, 12-15, 23, 24, 28, 32, 34, 38, 44, 45, 49, 53, 55,
                  59, 65, 66, 70, 74, 76, 80, 86-89
    3    1 H      7-9, 16-18, 20, 25-27, 29-31, 35-37, 39-41, 46-48, 50-52,
                  56-58, 60-62, 67-69, 71-73, 77-79, 81-85, 90
    4   77 Ir     19
    5    5 B      21, 42, 63
    6    8 O      22, 33, 43, 54, 64, 75
    7   35 Br     91
    8   16 S      92
    9   17 Cl     93

molecular fragmentation (1/2 indicates fragments):
111111111111111111111111111111111111111111111111111111111111111111111111
111111111111122222222
# atoms in fragment 1/2:    85     8
 fragment masses (1/2) :      730.32      196.47
CMA distance (Bohr)    :   8.745
constraining FC (au)   :  0.0500

           -------------------------------------------------
          |                 G F N 2 - x T B                 |
           -------------------------------------------------

        Reference                      10.1021/acs.jctc.8b01176
      * Hamiltonian:
        H0-scaling (s, p, d)           1.850000    2.230000    2.230000
        zeta-weighting                 0.500000
      * Dispersion:
        s8                             2.700000
        a1                             0.520000
        a2                             5.000000
        s9                             5.000000
      * Repulsion:
        kExp                           1.500000    1.000000
        rExp                           1.000000
      * Coulomb:
        alpha                          2.000000
        third order                    shell-resolved
        anisotropic                    true
        a3                             3.000000
        a5                             4.000000
        cn-shift                       1.200000
        cn-exp                         4.000000
        max-rad                        5.000000

      * Solvation model:               ALPB
        Solvent                        thf
        Parameter file                 internal GFN2-xTB/ALPB
        Dielectric constant                7.6000E+00
        Reference state                gsolv [1 M gas/solution]
        Free energy shift                  5.3248E-03 Eh       3.3414E+00 kcal/mol
        Temperature                        2.9815E+02 K
        Density                            8.8300E-01 kg/L
        Solvent mass                       7.2106E+01 g/mol
        Interaction kernel             P16
        Born radius scaling (c1)           1.7311E+00
        Born radii integrator          GBOBC
        Born offset                        0.0000E+00 a0       0.0000E+00 AA
        H-bond correction              true
        Ion screening                  false
        Surface tension                    1.0000E-05 Eh       1.5569E+01 dyn/cm
        Grid points                               230 per atom
q/qsh data taken from xtbrestart
CAMM data taken from xtbrestart

          ...................................................
          :                      SETUP                      :
          :.................................................:
          :  # basis functions                 258          :
          :  # atomic orbitals                 254          :
          :  # shells                          144          :
          :  # electrons                       258          :
          :  max. iterations                   250          :
          :  Hamiltonian                  GFN2-xTB          :
          :  restarted?                       true          :
          :  GBSA solvation                   true          :
          :  PC potential                    false          :
          :  electronic temp.          300.0000000     K    :
          :  accuracy                    1.0000000          :
          :  -> integral cutoff          0.2500000E+02      :
          :  -> integral neglect         0.1000000E-07      :
          :  -> SCF convergence          0.1000000E-05 Eh   :
          :  -> wf. convergence          0.1000000E-03 e    :
          :  Broyden damping             0.4000000          :
          ...................................................

 iter      E             dE          RMSdq      gap      omega  full diag
   1   -143.6656343 -0.143666E+03  0.917E-05    0.92       0.0  T
   2   -143.6656343  0.465064E-09  0.107E-04    0.92      96.8  T
   3   -143.6656343 -0.653699E-09  0.705E-05    0.92     147.1  T

   *** convergence criteria satisfied after 3 iterations ***

         #    Occupation            Energy/Eh            Energy/eV
      -------------------------------------------------------------
         1        2.0000           -1.0703302             -29.1252
       ...           ...                  ...                  ...
       123        2.0000           -0.3787060             -10.3051
       124        2.0000           -0.3591186              -9.7721
       125        2.0000           -0.3420743              -9.3083
       126        2.0000           -0.3344758              -9.1016
       127        2.0000           -0.3313160              -9.0156
       128        2.0000           -0.3222505              -8.7689
       129        2.0000           -0.3192322              -8.6867 (HOMO)
       130                         -0.2856037              -7.7717 (LUMO)
       131                         -0.2574516              -7.0056
       132                         -0.2548419              -6.9346
       133                         -0.2525079              -6.8711
       134                         -0.2297535              -6.2519
       ...                                ...                  ...
       254                          3.8165641             103.8540
      -------------------------------------------------------------
                  HL-Gap            0.0336285 Eh            0.9151 eV
             Fermi-level           -0.3023985 Eh           -8.2287 eV

 SCC (total)                   0 d,  0 h,  0 min,  0.090 sec
 SCC setup                      ...        0 min,  0.003 sec (  3.408%)
 Dispersion                     ...        0 min,  0.002 sec (  2.659%)
 classical contributions        ...        0 min,  0.000 sec (  0.157%)
 integral evaluation            ...        0 min,  0.012 sec ( 13.471%)
 iterations                     ...        0 min,  0.036 sec ( 40.665%)
 molecular gradient             ...        0 min,  0.035 sec ( 38.794%)
 printout                       ...        0 min,  0.001 sec (  0.772%)

         :::::::::::::::::::::::::::::::::::::::::::::::::::::
         ::                     SUMMARY                     ::
         :::::::::::::::::::::::::::::::::::::::::::::::::::::
         :: total energy            -142.000511427550 Eh    ::
         :: total w/o Gsasa/hb      -141.960899551369 Eh    ::
         :: gradient norm              0.031765723391 Eh/a0 ::
         :: HOMO-LUMO gap              0.915078100362 eV    ::
         ::.................................................::
         :: SCC energy              -143.665634280114 Eh    ::
         :: -> isotropic ES            0.238971642741 Eh    ::
         :: -> anisotropic ES          0.001527322472 Eh    ::
         :: -> anisotropic XC          0.029729857999 Eh    ::
         :: -> dispersion             -0.139242860583 Eh    ::
         :: -> Gsolv                  -0.049379121272 Eh    ::
         ::    -> Gelec               -0.009767245090 Eh    ::
         ::    -> Gsasa               -0.042483215804 Eh    ::
         ::    -> Ghb                 -0.002453475822 Eh    ::
         ::    -> Gshift               0.005324815444 Eh    ::
         :: repulsion energy           1.656560715912 Eh    ::
         :: add. restraining           0.000000000000 Eh    ::
         :: total charge               0.000000001719 e     ::
         :::::::::::::::::::::::::::::::::::::::::::::::::::::

           -------------------------------------------------
          |                Property Printout                |
           -------------------------------------------------

    * Orbital Energies and Occupations

         #    Occupation            Energy/Eh            Energy/eV
      -------------------------------------------------------------
         1        2.0000           -1.0703302             -29.1252
       ...           ...                  ...                  ...
       117        2.0000           -0.4023047             -10.9473
       118        2.0000           -0.4004654             -10.8972
       119        2.0000           -0.3973189             -10.8116
       120        2.0000           -0.3923051             -10.6752
       121        2.0000           -0.3874961             -10.5443
       122        2.0000           -0.3846372             -10.4665
       123        2.0000           -0.3787060             -10.3051
       124        2.0000           -0.3591186              -9.7721
       125        2.0000           -0.3420743              -9.3083
       126        2.0000           -0.3344758              -9.1016
       127        2.0000           -0.3313160              -9.0156
       128        2.0000           -0.3222505              -8.7689
       129        2.0000           -0.3192322              -8.6867 (HOMO)
       130                         -0.2856037              -7.7717 (LUMO)
       131                         -0.2574516              -7.0056
       132                         -0.2548419              -6.9346
       133                         -0.2525079              -6.8711
       134                         -0.2297535              -6.2519
       135                         -0.2135291              -5.8104
       136                         -0.2057987              -5.6001
       137                         -0.1981748              -5.3926
       138                         -0.1722257              -4.6865
       139                         -0.1578732              -4.2959
       140                         -0.1493129              -4.0630
       ...                                ...                  ...
       254                          3.8165641             103.8540
      -------------------------------------------------------------
                  HL-Gap            0.0336285 Eh            0.9151 eV
             Fermi-level           -0.3023985 Eh           -8.2287 eV

     #   Z          covCN         q      C6AA      α(0)
     1   7 N        2.543    -0.124    23.724     7.234
     2   6 C        2.955     0.078    26.268     8.406
     3   6 C        2.918    -0.042    29.042     8.837
     4   6 C        2.924    -0.020    28.510     8.756
     5   6 C        2.915    -0.041    29.026     8.835
     6   6 C        2.893     0.050    26.885     8.501
     7   1 H        0.926     0.056     2.252     2.347
     8   1 H        0.926     0.061     2.184     2.311
     9   1 H        0.926     0.050     2.320     2.382
    10   6 C        2.953     0.074    26.352     8.420
    11   7 N        2.546    -0.132    23.884     7.258
    12   6 C        2.890     0.043    27.033     8.524
    13   6 C        2.915    -0.043    29.070     8.841
    14   6 C        2.923    -0.023    28.571     8.766
    15   6 C        2.918    -0.045    29.115     8.848
    16   1 H        0.926     0.050     2.321     2.383
    17   1 H        0.926     0.055     2.264     2.353
    18   1 H        0.926     0.077     2.011     2.218
    19  77 Ir       5.924    -0.144   386.756    36.368
    20   1 H        0.977     0.095     1.828     2.113
    21   5 B        2.639     0.408    15.920     6.733
    22   8 O        1.638    -0.405    20.948     6.178
    23   6 C        3.837     0.130    18.449     6.111
    24   6 C        3.755    -0.123    22.913     6.825
    25   1 H        0.925     0.056     2.249     2.345
    26   1 H        0.925     0.047     2.360     2.402
    27   1 H        0.925     0.053     2.285     2.364
    28   6 C        3.754    -0.110    22.660     6.788
    29   1 H        0.925     0.050     2.323     2.383
    30   1 H        0.925     0.043     2.406     2.426
    31   1 H        0.925     0.026     2.639     2.540
    32   6 C        3.845     0.131    18.427     6.106
    33   8 O        1.637    -0.405    20.953     6.179
    34   6 C        3.755    -0.123    22.918     6.826
    35   1 H        0.925     0.054     2.271     2.357
    36   1 H        0.925     0.048     2.345     2.395
    37   1 H        0.925     0.051     2.305     2.374
    38   6 C        3.754    -0.120    22.861     6.818
    39   1 H        0.925     0.046     2.374     2.409
    40   1 H        0.925     0.054     2.265     2.354
    41   1 H        0.925     0.047     2.354     2.399
    42   5 B        2.613     0.408    16.052     6.785
    43   8 O        1.637    -0.375    20.388     6.095
    44   6 C        3.830     0.129    18.469     6.115
    45   6 C        3.755    -0.132    23.088     6.851
    46   1 H        0.925     0.063     2.164     2.300
    47   1 H        0.925     0.058     2.218     2.329
    48   1 H        0.925     0.054     2.271     2.357
    49   6 C        3.755    -0.122    22.886     6.821
    50   1 H        0.925     0.050     2.315     2.380
    51   1 H        0.925     0.050     2.321     2.382
    52   1 H        0.925     0.050     2.317     2.380
    53   6 C        3.825     0.129    18.475     6.116
    54   8 O        1.637    -0.389    20.648     6.134
    55   6 C        3.755    -0.123    22.905     6.824
    56   1 H        0.925     0.050     2.325     2.385
    57   1 H        0.925     0.052     2.297     2.370
    58   1 H        0.925     0.050     2.318     2.381
    59   6 C        3.755    -0.125    22.953     6.831
    60   1 H        0.925     0.053     2.277     2.360
    61   1 H        0.925     0.054     2.275     2.359
    62   1 H        0.925     0.050     2.319     2.382
    63   5 B        2.630     0.405    15.995     6.757
    64   8 O        1.637    -0.373    20.349     6.089
    65   6 C        3.833     0.126    18.519     6.123
    66   6 C        3.755    -0.136    23.172     6.864
    67   1 H        0.925     0.060     2.197     2.318
    68   1 H        0.925     0.063     2.166     2.301
    69   1 H        0.925     0.054     2.268     2.355
    70   6 C        3.755    -0.131    23.081     6.850
    71   1 H        0.925     0.065     2.141     2.288
    72   1 H        0.925     0.053     2.285     2.364
    73   1 H        0.925     0.052     2.295     2.369
    74   6 C        3.831     0.127    18.500     6.120
    75   8 O        1.636    -0.378    20.447     6.104
    76   6 C        3.755    -0.126    22.976     6.835
    77   1 H        0.925     0.054     2.274     2.358
    78   1 H        0.925     0.054     2.273     2.358
    79   1 H        0.925     0.058     2.226     2.333
    80   6 C        3.755    -0.124    22.926     6.827
    81   1 H        0.925     0.040     2.444     2.445
    82   1 H        0.925     0.051     2.301     2.372
    83   1 H        0.925     0.057     2.236     2.338
    84   1 H        0.926     0.058     2.227     2.333
    85   1 H        0.926     0.054     2.274     2.358
    86   6 C        3.008    -0.055    29.348     8.886
    87   6 C        3.131    -0.053    29.108     8.833
    88   6 C        2.951     0.060    26.649     8.467
    89   6 C        2.895     0.084    26.119     8.379
    90   1 H        0.926     0.054     2.272     2.357
    91  35 Br       1.168    -0.120   188.364    22.129
    92  16 S        2.506    -0.023   141.999    20.056
    93  17 Cl       1.006    -0.175   104.671    15.652

 Mol. C6AA /au·bohr⁶  :     109044.955396
 Mol. C8AA /au·bohr⁸  :    3204694.985451
 Mol. α(0) /au        :        514.167601


Wiberg/Mayer (AO) data.
largest (>0.10) Wiberg bond orders for each atom

 ---------------------------------------------------------------------------
     #   Z sym  total        # sym  WBO       # sym  WBO       # sym  WBO
 ---------------------------------------------------------------------------
     1   7 N    3.395 --     6 C    1.391     2 C    1.318    19 Ir   0.428
     2   6 C    3.978 --     3 C    1.353     1 N    1.318    10 C    1.087
     3   6 C    3.988 --     4 C    1.479     2 C    1.353     9 H    0.961
                             6 C    0.106
     4   6 C    3.985 --     3 C    1.479     5 C    1.389    84 H    0.968
     5   6 C    3.979 --     6 C    1.456     4 C    1.389     8 H    0.968
     6   6 C    3.977 --     5 C    1.456     1 N    1.391     7 H    0.957
                             3 C    0.106
     7   1 H    0.996 --     6 C    0.957
     8   1 H    0.995 --     5 C    0.968
     9   1 H    0.997 --     3 C    0.961
    10   6 C    3.978 --    15 C    1.358    11 N    1.310     2 C    1.087
    11   7 N    3.399 --    12 C    1.389    10 C    1.310    19 Ir   0.415
    12   6 C    3.972 --    13 C    1.454    11 N    1.389    18 H    0.947
                            15 C    0.105
    13   6 C    3.981 --    12 C    1.454    14 C    1.391    17 H    0.969
    14   6 C    3.983 --    15 C    1.474    13 C    1.391    85 H    0.969
    15   6 C    3.989 --    14 C    1.474    10 C    1.358    16 H    0.961
                            12 C    0.105
    16   1 H    0.997 --    15 C    0.961
    17   1 H    0.996 --    13 C    0.969
    18   1 H    0.994 --    12 C    0.947
    19  77 Ir   5.138 --    42 B    0.848    63 B    0.846    21 B    0.733
                            20 H    0.572    86 C    0.569     1 N    0.428
                            11 N    0.415
    20   1 H    0.989 --    19 Ir   0.572    86 C    0.317
    21   5 B    3.278 --    33 O    1.113    22 O    1.103    19 Ir   0.733
    22   8 O    2.199 --    21 B    1.103    23 C    0.939
    23   6 C    3.941 --    24 C    0.997    28 C    0.991    32 C    0.941
                            22 O    0.939
    24   6 C    3.993 --    23 C    0.997    26 H    0.983    27 H    0.983
                            25 H    0.982
    25   1 H    0.997 --    24 C    0.982
    26   1 H    0.997 --    24 C    0.983
    27   1 H    0.997 --    24 C    0.983
    28   6 C    3.996 --    23 C    0.991    31 H    0.985    30 H    0.984
                            29 H    0.984
    29   1 H    0.997 --    28 C    0.984
    30   1 H    0.998 --    28 C    0.984
    31   1 H    0.999 --    28 C    0.985
    32   6 C    3.938 --    38 C    0.997    34 C    0.991    23 C    0.941
                            33 O    0.935
    33   8 O    2.200 --    21 B    1.113    32 C    0.935
    34   6 C    3.993 --    32 C    0.991    36 H    0.983    37 H    0.981
                            35 H    0.981
    35   1 H    0.997 --    34 C    0.981
    36   1 H    0.997 --    34 C    0.983
    37   1 H    0.997 --    34 C    0.981
    38   6 C    3.994 --    32 C    0.997    41 H    0.983    39 H    0.983
                            40 H    0.982
    39   1 H    0.998 --    38 C    0.983
    40   1 H    0.997 --    38 C    0.982
    41   1 H    0.997 --    38 C    0.983
    42   5 B    3.343 --    43 O    1.143    54 O    1.105    19 Ir   0.848
    43   8 O    2.244 --    42 B    1.143    44 C    0.932
    44   6 C    3.933 --    45 C    0.996    49 C    0.992    53 C    0.937
                            43 O    0.932
    45   6 C    3.991 --    44 C    0.996    48 H    0.982    47 H    0.981
                            46 H    0.979
    46   1 H    0.996 --    45 C    0.979
    47   1 H    0.996 --    45 C    0.981
    48   1 H    0.996 --    45 C    0.982
    49   6 C    3.994 --    44 C    0.992    50 H    0.983    51 H    0.983
                            52 H    0.980
    50   1 H    0.996 --    49 C    0.983
    51   1 H    0.997 --    49 C    0.983
    52   1 H    0.997 --    49 C    0.980
    53   6 C    3.934 --    55 C    0.995    59 C    0.994    44 C    0.937
                            54 O    0.931
    54   8 O    2.225 --    42 B    1.105    53 C    0.931
    55   6 C    3.994 --    53 C    0.995    57 H    0.983    56 H    0.983
                            58 H    0.983
    56   1 H    0.997 --    55 C    0.983
    57   1 H    0.997 --    55 C    0.983
    58   1 H    0.996 --    55 C    0.983
    59   6 C    3.993 --    53 C    0.994    62 H    0.983    61 H    0.982
                            60 H    0.979
    60   1 H    0.997 --    59 C    0.979
    61   1 H    0.996 --    59 C    0.982
    62   1 H    0.997 --    59 C    0.983
    63   5 B    3.372 --    75 O    1.126    64 O    1.120    19 Ir   0.846
    64   8 O    2.240 --    63 B    1.120    65 C    0.932
    65   6 C    3.934 --    70 C    0.997    66 C    0.992    74 C    0.938
                            64 O    0.932
    66   6 C    3.990 --    65 C    0.992    69 H    0.982    68 H    0.980
                            67 H    0.978
    67   1 H    0.996 --    66 C    0.978
    68   1 H    0.996 --    66 C    0.980
    69   1 H    0.996 --    66 C    0.982
    70   6 C    3.991 --    65 C    0.997    72 H    0.983    73 H    0.982
                            71 H    0.981
    71   1 H    0.995 --    70 C    0.981
    72   1 H    0.996 --    70 C    0.983
    73   1 H    0.997 --    70 C    0.982
    74   6 C    3.932 --    76 C    0.997    80 C    0.992    65 C    0.938
                            75 O    0.931
    75   8 O    2.238 --    63 B    1.126    74 C    0.931
    76   6 C    3.992 --    74 C    0.997    77 H    0.982    78 H    0.982
                            79 H    0.982
    77   1 H    0.996 --    76 C    0.982
    78   1 H    0.997 --    76 C    0.982
    79   1 H    0.997 --    76 C    0.982
    80   6 C    3.994 --    74 C    0.992    81 H    0.984    82 H    0.983
                            83 H    0.983
    81   1 H    0.998 --    80 C    0.984
    82   1 H    0.997 --    80 C    0.983
    83   1 H    0.996 --    80 C    0.983
    84   1 H    0.996 --     4 C    0.968
    85   1 H    0.996 --    14 C    0.969
    86   6 C    3.926 --    88 C    1.560    87 C    1.205    19 Ir   0.569
                            20 H    0.317
    87   6 C    3.980 --    89 C    1.590    86 C    1.205    90 H    0.955
                            92 S    0.102
    88   6 C    3.884 --    86 C    1.560    92 S    1.101    91 Br   0.998
    89   6 C    3.868 --    87 C    1.590    92 S    1.145    93 Cl   0.977
    90   1 H    0.997 --    87 C    0.955
    91  35 Br   1.167 --    88 C    0.998
    92  16 S    2.588 --    89 C    1.145    88 C    1.101    87 C    0.102
    93  17 Cl   1.114 --    89 C    0.977
 ---------------------------------------------------------------------------

Topologies differ in total number of bonds
Writing topology from bond orders to xtbtopo.mol

molecular dipole:
                 x           y           z       tot (Debye)
 q only:        0.486       0.896      -2.530
   full:       -2.070       1.210      -3.399      10.573
molecular quadrupole (traceless):
                xx          xy          yy          xz          yz          zz
 q only:       18.950      -1.333       7.825       9.811      23.851     -26.775
  q+dip:       14.094       6.126      16.045      -8.601      30.445     -30.139
   full:       13.992       7.780      16.453     -11.527      27.461     -30.445


           -------------------------------------------------
          | TOTAL ENERGY             -142.000511427550 Eh   |
          | GRADIENT NORM               0.031765723391 Eh/α |
          | HOMO-LUMO GAP               0.915078100362 eV   |
           -------------------------------------------------

------------------------------------------------------------------------
 * finished run on 2022/01/14 at 13:50:31.546     
------------------------------------------------------------------------
 total:
 * wall-time:     0 d,  0 h,  0 min,  0.121 sec
 *  cpu-time:     0 d,  0 h,  0 min,  0.708 sec
 * ratio c/w:     5.834 speedup
 SCF:
 * wall-time:     0 d,  0 h,  0 min,  0.091 sec
 *  cpu-time:     0 d,  0 h,  0 min,  0.544 sec
 * ratio c/w:     5.965 speedup

