23
 energy: -32.080938541635 gnorm: 0.034292670176 xtb: 6.4.0 (f63f532)
C         0.60975000000000    0.46978000000000    1.14772000000000
C         0.90553000000000    0.99190000000000   -0.12020000000000
C         1.81441000000000    2.18609000000000   -0.26628000000000
N         3.20688000000000    1.78064000000000   -0.41330000000000
C         3.82641000000000    1.48474000000000   -1.60180000000000
C         5.13559000000000    1.15462000000000   -1.32816000000000
C         5.31956000000000    1.28061000000000    0.06931000000000
C         4.11710000000000    1.68128000000000    0.60892000000000
C         0.36823000000000    0.36253000000000   -1.25328000000000
C        -0.44816000000000   -0.76148000000000   -1.12061000000000
C        -0.73549000000000   -1.26978000000000    0.14494000000000
C        -0.20826000000000   -0.65434000000000    1.27845000000000
H         1.02255000000000    0.92955000000000    2.04308000000000
H         1.74335000000000    2.84611000000000    0.60638000000000
H         1.54339000000000    2.78421000000000   -1.14433000000000
H         3.28712000000000    1.51673000000000   -2.53911000000000
H         5.87759000000000    0.85645000000000   -2.05740000000000
H         6.23189000000000    1.09907000000000    0.62261000000000
H         3.83692000000000    1.88927000000000    1.63288000000000
H         0.59184000000000    0.73775000000000   -2.24951000000000
H        -0.85313000000000   -1.24644000000000   -2.00482000000000
H        -1.36417000000000   -2.15047000000000    0.24676000000000
H        -0.42716000000000   -1.05496000000000    2.26452000000000
23
 energy: -32.083152501076 gnorm: 0.010456675279 xtb: 6.4.0 (f63f532)
C         0.61658569072610    0.46620877303063    1.13650415838059
C         0.90957559574285    0.98491518763915   -0.12107029335950
C         1.81620038790146    2.18265441267747   -0.26775371180100
N         3.20473934478097    1.78623243115436   -0.41363235615633
C         3.82060458549571    1.47364263986696   -1.58828633629548
C         5.12658676000630    1.15450725213507   -1.32285123867154
C         5.30934543247350    1.27860479204393    0.06770501891093
C         4.10795524505702    1.66792668763255    0.59969588526812
C         0.37642293526861    0.35955928976953   -1.24435463041271
C        -0.43505557196535   -0.75661411357291   -1.11390259577103
C        -0.72333718320413   -1.26254653220704    0.14362889944173
C        -0.19558907273838   -0.64990504647276    1.26877084070569
H         1.02008161705741    0.93603300991694    2.02370903308280
H         1.73895339023783    2.82897439205191    0.61235788551252
H         1.53433189348758    2.76713664237572   -1.14991684105113
H         3.28729492570246    1.50576730897471   -2.51950718259313
H         5.86865026498956    0.86841461639607   -2.04683308329757
H         6.21927839469178    1.10675942102432    0.61466498517962
H         3.83136840731645    1.87466788032177    1.61628307132722
H         0.59028409682857    0.74655473052482   -2.23184797704494
H        -0.84581171419989   -1.23138130489078   -1.99466403786703
H        -1.35744572173389   -2.13306158065252    0.24606668197562
H        -0.41927970392254   -1.04119088973992    2.25200382453653
23
 energy: -32.083335229168 gnorm: 0.003171870983 xtb: 6.4.0 (f63f532)
C         0.62181618649162    0.46572952129024    1.13364405407819
C         0.91300651371504    0.98178388919536   -0.12199762593689
C         1.81710381887589    2.18314851519236   -0.26887055285271
N         3.20251082593698    1.79321980317300   -0.41428921013706
C         3.81625398266760    1.47474523737096   -1.58346067362402
C         5.11965823724354    1.15083647458762   -1.32070929180809
C         5.30175344064574    1.27435415171034    0.06908606363596
C         4.10138043352243    1.66719049368493    0.59614721895009
C         0.38003659456340    0.35972581148136   -1.24328612881469
C        -0.43055009441849   -0.75407782846457   -1.11300000402830
C        -0.71736919282348   -1.26040530969386    0.14327487703497
C        -0.18926852330266   -0.64776543265461    1.26679436674950
H         1.02672510236218    0.93906963838001    2.01636709558770
H         1.73525756643400    2.82289016750497    0.61409928541176
H         1.52910629647785    2.76057079126586   -1.15231812203967
H         3.28592519879998    1.50708341262731   -2.51424470086788
H         5.86116411520374    0.86413378877647   -2.04158857580812
H         6.20941240040594    1.10028002366633    0.61445967409009
H         3.82645991389149    1.87312808538184    1.61147442454806
H         0.59476631716129    0.75069653032256   -2.22724976213633
H        -0.84079079344401   -1.22667671865237   -1.99314180934782
H        -1.35132582659990   -2.12866906281394    0.24615825993381
H        -0.41129251381017   -1.03713198333218    2.24942113738146
23
 energy: -32.083362716049 gnorm: 0.001252622545 xtb: 6.4.0 (f63f532)
C         0.62575996680271    0.46591374455700    1.13335257992877
C         0.91434730318135    0.98230083045304   -0.12276132143793
C         1.81649319854350    2.18630335169995   -0.26987359178147
N         3.20084031302840    1.79876883657979   -0.41490685523946
C         3.81360068137587    1.47666115264644   -1.58272805827942
C         5.11561477826390    1.14694417799980   -1.31965569371695
C         5.29698212457631    1.26962543236218    0.07090127040227
C         4.09737566103303    1.66791114832928    0.59595218560549
C         0.38206023115399    0.36023010927273   -1.24431648072728
C        -0.42759523315503   -0.75423484918137   -1.11345324542696
C        -0.71338536243943   -1.26058764224978    0.14326821107429
C        -0.18433597176145   -0.64822219032999    1.26681522148918
H         1.03223922717662    0.94064442979657    2.01454330660676
H         1.73175800348435    2.82445171485934    0.61353109710268
H         1.52568209822260    2.76150664598530   -1.15338316954050
H         3.28516728912469    1.51047111051660   -2.51483576963467
H         5.85710804406422    0.85749990351503   -2.03914238737564
H         6.20355959798963    1.09183892744658    0.61645841365434
H         3.82351021607151    1.87461565390706    1.61169041456501
H         0.59688689719663    0.75305679672865   -2.22746177245006
H        -0.83880838929825   -1.22609055482862   -1.99345148325390
H        -1.34743450062177   -2.12844944610164    0.24660247025871
H        -0.40568617401336   -1.03729928396398    2.24962465817673
23
 energy: -32.083392237247 gnorm: 0.002457025699 xtb: 6.4.0 (f63f532)
C         0.63482327013572    0.46638295653513    1.13264348211457
C         0.91669107370740    0.98467793065218   -0.12481700887509
C         1.81374906583749    2.19463119311537   -0.27278959615933
N         3.19731729724201    1.81207045057290   -0.41663272481889
C         3.80889263732500    1.48238684423831   -1.58248680167001
C         5.10703486044465    1.13742010528748   -1.31667786083083
C         5.28610285171926    1.25792500096147    0.07551588080770
C         4.08876354953435    1.66992369393529    0.59666780244043
C         0.38497453021219    0.36195352683717   -1.24679898338053
C        -0.42246407442645   -0.75448217202859   -1.11416289455032
C        -0.70475366049675   -1.26110837122442    0.14365347571206
C        -0.17300383142299   -0.64970578734907    1.26705511751016
H         1.04552165461073    0.94255292157242    2.01128833574252
H         1.72298076685176    2.83172240300367    0.61042126792302
H         1.51797207187410    2.76659442299564   -1.15629937128350
H         3.28552082093526    1.52169282327429   -2.51810264286156
H         5.84844485378536    0.83962586843929   -2.03303372067191
H         6.18987784654659    1.06960360493825    0.62250502768890
H         3.81711367270966    1.87949531727087    1.61317873671922
H         0.59970324895368    0.75711840610769   -2.22917333864063
H        -0.83465254369221   -1.22686738217798   -1.99364912344582
H        -1.33812676856122   -2.12936777403233    0.24822205766205
H        -0.39074319382559   -1.04038598292503    2.25024288286780
23
 energy: -32.083402606507 gnorm: 0.001925114443 xtb: 6.4.0 (f63f532)
C         0.63678490730404    0.46720952198388    1.13199117548319
C         0.91641477138576    0.98662227719346   -0.12550819843799
C         1.81236206277067    2.19721220447227   -0.27394572360383
N         3.19641292407160    1.81489817466865   -0.41709958762760
C         3.80819917476893    1.48351010715975   -1.58261482059810
C         5.10495747403081    1.13480589201619   -1.31538470757572
C         5.28295176010352    1.25429123449117    0.07688640141262
C         4.08653374082776    1.66969063579148    0.59722603541106
C         0.38455885938705    0.36332218854762   -1.24709146155457
C        -0.42113466338218   -0.75432483156113   -1.11401242400211
C        -0.70148230706937   -1.26162916143440    0.14386107921184
C        -0.16923231320082   -0.65012535779746    1.26685478733355
H         1.04817582104328    0.94300183527270    2.01051246916394
H         1.72107795754272    2.83525570422592    0.60868562567685
H         1.51681263817231    2.76883959049605   -1.15788064218378
H         3.28620638611987    1.52523860596502   -2.51879276966489
H         5.84608774016492    0.83446428042975   -2.03104896218887
H         6.18553729218232    1.06261175754534    0.62477239780307
H         3.81487043826076    1.88044044281041    1.61339207067883
H         0.59795314579542    0.75857214417957   -2.22973995662806
H        -0.83343982637130   -1.22733855230438   -1.99316208998625
H        -1.33381024235461   -2.13073117811225    0.24882479485596
H        -0.38505774155347   -1.04197751603965    2.25004450702086
23
 energy: -32.083423238816 gnorm: 0.000604920510 xtb: 6.4.0 (f63f532)
C         0.64143791000157    0.46927715936271    1.12990987704628
C         0.91549019940507    0.99162313912914   -0.12749634150746
C         1.80902834629791    2.20249685758532   -0.27747216910615
N         3.19461269728751    1.81915614786675   -0.41817861098152
C         3.80785498746539    1.48531505344301   -1.58292701700858
C         5.10158990464532    1.12960044239041   -1.31182970350943
C         5.27639584000515    1.24648144772305    0.08044081079858
C         4.08143089925668    1.66735486716362    0.59890207148253
C         0.38171479599579    0.36729546491276   -1.24748581813132
C        -0.41962021732073   -0.75325463959531   -1.11319936072547
C        -0.69392970998006   -1.26316346898053    0.14473463691503
C        -0.16008332953130   -0.65103096402201    1.26632961191105
H         1.05315690484812    0.94416122200944    2.00876972919755
H         1.71795053891550    2.84394251143517    0.60319079422123
H         1.51616331315376    2.77322338530976   -1.16328971857616
H         3.28854779292089    1.53326395986099   -2.51986824657118
H         5.84230829100387    0.82507824765664   -2.02633099925461
H         6.17601875834363    1.04839846783477    0.63111152402340
H         3.80794781799749    1.88030224954549    1.61371636459163
H         0.58960689817598    0.76275177204091   -2.23128933291707
H        -0.83260787932486   -1.22766997188491   -1.99133167787468
H        -1.32255821968155   -2.13508371436712    0.25077752211854
H        -0.37071653988114   -1.04565963642010    2.24958605385776
23
 energy: -32.083436707009 gnorm: 0.001143357755 xtb: 6.4.0 (f63f532)
C         0.64611085465134    0.47151776865215    1.12795542760585
C         0.91440402114151    0.99619806132816   -0.12962798026265
C         1.80655211514300    2.20718198779775   -0.28134751087525
N         3.19259296460048    1.82268577422157   -0.41923951025611
C         3.80739809267135    1.48711753511925   -1.58271637125490
C         5.09867095094900    1.12513155773783   -1.30835487661262
C         5.26998384676885    1.23886398391217    0.08442904127093
C         4.07578230120081    1.66509450948368    0.60019237666030
C         0.37836653172015    0.37146603226415   -1.24818167416424
C        -0.41838408103907   -0.75210704993411   -1.11248675152562
C        -0.68604606092626   -1.26493396455229    0.14567167399986
C        -0.15067326508069   -0.65188473482352    1.26596599936322
H         1.05935795981813    0.94596640479363    2.00630801199083
H         1.71483261964138    2.85114864704965    0.59749267444996
H         1.51567250064789    2.77570654368935   -1.16924418151504
H         3.29041230126903    1.53943488600520   -2.52056559618821
H         5.83948800403776    0.81763579000224   -2.02147023345359
H         6.16675706687593    1.03520808426795    0.63773936619586
H         3.79990277188317    1.87859959032076    1.61410501313659
H         0.58110477011467    0.76815643065659   -2.23256280082162
H        -0.83311845252119   -1.22668377423006   -1.98966092630312
H        -1.31113900195034   -2.13921431437146    0.25290049662799
H        -0.35628881161693   -1.04842974939065    2.24946833193155
23
 energy: -32.083449905788 gnorm: 0.001020201932 xtb: 6.4.0 (f63f532)
C         0.65186769598158    0.47353308029434    1.12589278314911
C         0.91344110953473    1.00056477487642   -0.13213376861880
C         1.80448878260742    2.21197812153858   -0.28591518594107
N         3.19022253951680    1.82534233885014   -0.42034738877568
C         3.80709892587590    1.48881999985504   -1.58231767820509
C         5.09584620139502    1.12042534939619   -1.30447991633152
C         5.26332838185867    1.23165015455767    0.08901336470689
C         4.06922775474631    1.66190566215048    0.60163859305107
C         0.37413463285465    0.37608018916721   -1.24923443073085
C        -0.41834658334853   -0.75028221243067   -1.11171538116745
C        -0.67829097601325   -1.26631512291609    0.14680877565245
C        -0.14054200215376   -0.65268918315363    1.26571799839146
H         1.06653848804316    0.94869383103670    2.00320577009301
H         1.71158190141165    2.85834797914837    0.59098161023836
H         1.51547591846904    2.77763396482483   -1.17611664679244
H         3.29277294833610    1.54471166102026   -2.52147917840487
H         5.83740454962803    0.81087883911056   -2.01587576414140
H         6.15730653721987    1.02334085016975    0.64497004894685
H         3.79047460766696    1.87455130165421    1.61499719244258
H         0.57104654840040    0.77507113657537   -2.23389185270372
H        -0.83472496045019   -1.22517645951819   -1.98789257753962
H        -1.29826489581828   -2.14399222374441    0.25534559167840
H        -0.34034810576230   -1.05121403246315    2.24959804100228
23
 energy: -32.083463561343 gnorm: 0.000465076471 xtb: 6.4.0 (f63f532)
C         0.65917622749890    0.47661427107569    1.12313467611220
C         0.91105768759866    1.00672032518415   -0.13564514589823
C         1.80189542012589    2.21815549944371   -0.29246724307736
N         3.18681373011645    1.82823518950002   -0.42183471024992
C         3.80693932057958    1.49080649488471   -1.58162981458887
C         5.09264861774597    1.11526358690512   -1.29909803341080
C         5.25419268903282    1.22148083362372    0.09571661090088
C         4.06026080236560    1.65824027668814    0.60355760156535
C         0.36732385034260    0.38268011043097   -1.25082646138841
C        -0.41834526933543   -0.74821567423209   -1.11067630139015
C        -0.66683467809964   -1.26887293598925    0.14835632107362
C        -0.12626810293497   -0.65417432561764    1.26542060042392
H         1.07777211402923    0.95205189635828    1.99841990147756
H         1.70699986231785    2.86802532102925    0.58150103374001
H         1.51540187620693    2.77959023868116   -1.18589806933389
H         3.29662322264344    1.55020595561481   -2.52290020031299
H         5.83582624441619    0.80345695537713   -2.00777451422184
H         6.14439612052212    1.00667906123329    0.65525108443761
H         3.77782529559027    1.86933889667313    1.61634345244809
H         0.55652023187970    0.78520496903423   -2.23556444462683
H        -0.83872181136973   -1.22246198962085   -1.98533688125821
H        -1.28161700473723   -2.14986767432116    0.25889448020408
H        -0.31814644653522   -1.05529728195655    2.24982605737413
23
 energy: -32.083471269014 gnorm: 0.000372809306 xtb: 6.4.0 (f63f532)
C         0.66857617404468    0.47894164067760    1.11978629385851
C         0.90908705002115    1.01276865517365   -0.13971489950706
C         1.79885001940698    2.22489686414988   -0.29983896461855
N         3.18301315216101    1.83171602626790   -0.42357675842837
C         3.80704526709865    1.49333065317968   -1.58089066719463
C         5.08887521770861    1.10842761535542   -1.29267843081037
C         5.24428901881100    1.21185987718892    0.10313883585377
C         4.05013824030752    1.65390691883123    0.60582013236842
C         0.35967533886065    0.38971379921102   -1.25259842714642
C        -0.41991855911952   -0.74499379279553   -1.10940910534986
C        -0.65602513597001   -1.27024662345715    0.15009185772329
C        -0.11050770335449   -0.65575108210546    1.26493387615389
H         1.09091919385194    0.95519189963597    1.99279480934162
H         1.70167692562237    2.87859485713095    0.57100618686995
H         1.51495004633813    2.78195570444088   -1.19668891738494
H         3.30189145416998    1.55710640095318   -2.52479185541820
H         5.83396506997275    0.79342805354759   -1.99794206864162
H         6.13035500516065    0.99025587356459    0.66654835222708
H         3.76397057922965    1.86337180378512    1.61794013041873
H         0.54010689209884    0.79608487578780   -2.23740376210146
H        -0.84328153880398   -1.21988748768187   -1.98223137146530
H        -1.26322201707612   -2.15624749792819    0.26275629562446
H        -0.29268969054046   -1.06056503491323    2.24971845762701
23
 energy: -32.083472626863 gnorm: 0.000305346928 xtb: 6.4.0 (f63f532)
C         0.67318049730212    0.47983252932224    1.11806179186936
C         0.90822556314433    1.01551280798438   -0.14166579976549
C         1.79742482140117    2.22784717481955   -0.30333564520600
N         3.18144196757239    1.83343623435177   -0.42438423962940
C         3.80720094604206    1.49378229885341   -1.58041072406624
C         5.08736968090068    1.10592395172316   -1.28956708538053
C         5.23942347125500    1.20687459754115    0.10685023702954
C         4.04553073873630    1.65252814370053    0.60694035526121
C         0.35588895230066    0.39295334870477   -1.25336005112592
C        -0.42062993576882   -0.74373815254493   -1.10880602096852
C        -0.65063801078346   -1.27128331935807    0.15080320474955
C        -0.10280382729960   -0.65677675591706    1.26453782069453
H         1.09790962929436    0.95588042979236    1.99002412685545
H         1.69920084848976    2.88351481511976    0.56591107387451
H         1.51483677277255    2.78285002124028   -1.20181505679901
H         3.30461171386786    1.55943394069522   -2.52552184959709
H         5.83340013093498    0.78966845725958   -1.99321650383743
H         6.12340777487075    0.98218372203839    0.67216845004110
H         3.75777758891504    1.86229105370926    1.61856407859192
H         0.53182988139733    0.80111427467385   -2.23822441451904
H        -0.84658512323306   -1.21820374212316   -1.98065084021090
H        -1.25572154574538   -2.15849843245345    0.26450522577254
H        -0.28054253636705   -1.06326739913306    2.24936186636579
23
 energy: -32.083473009846 gnorm: 0.000179864557 xtb: 6.4.0 (f63f532)
C         0.67431996731344    0.47964576901571    1.11753487181599
C         0.90806935752385    1.01585217363685   -0.14217194984016
C         1.79710938071560    2.22815714989477   -0.30413800102008
N         3.18133298780613    1.83400622888644   -0.42460568960357
C         3.80754322137987    1.49409166470659   -1.58031028571042
C         5.08722929648188    1.10513069770151   -1.28867807267297
C         5.23870238511883    1.20652773065445    0.10771695573374
C         4.04480408143814    1.65276031913062    0.60717102923495
C         0.35483713134599    0.39354046904602   -1.25351176774695
C        -0.42126690872205   -0.74337271581919   -1.10865044854853
C        -0.64997864272021   -1.27140262431790    0.15092780401361
C        -0.10114690935062   -0.65723398828488    1.26434002247430
H         1.10008014737226    0.95514611052881    1.98927680437160
H         1.69860860413802    2.88422329656283    0.56478045173662
H         1.51479421547854    2.78282543013946   -1.20289886209348
H         3.30555351899131    1.56012122875589   -2.52567192908341
H         5.83337583544627    0.78810414193867   -1.99188015736268
H         6.12221510986026    0.98131897168528    0.67356283658024
H         3.75668656353656    1.86286315898443    1.61858357238625
H         0.52971991670034    0.80195877693216   -2.23840594178644
H        -0.84807584744075   -1.21756592587570   -1.98021139796922
H        -1.25496134723636   -2.15865272040350    0.26487987627556
H        -0.27781206517733   -1.06418534349936    2.24913027881499
