      -----------------------------------------------------------      
     |                   =====================                   |     
     |                           x T B                           |     
     |                   =====================                   |     
     |                         S. Grimme                         |     
     |          Mulliken Center for Theoretical Chemistry        |     
     |                    University of Bonn                     |     
      -----------------------------------------------------------      

   * xtb version 6.4.0 (f63f532) compiled by 'knkr256@seskscpg008.prim.scp' on 2021-04-09

   xtb is free software: you can redistribute it and/or modify it under
   the terms of the GNU Lesser General Public License as published by
   the Free Software Foundation, either version 3 of the License, or
   (at your option) any later version.
   
   xtb is distributed in the hope that it will be useful,
   but WITHOUT ANY WARRANTY; without even the implied warranty of
   MERCHANTABILITY or FITNESS FOR A PARTICULAR PURPOSE.  See the
   GNU Lesser General Public License for more details.
   
   Cite this work as:
   * C. Bannwarth, E. Caldeweyher, S. Ehlert, A. Hansen, P. Pracht,
     J. Seibert, S. Spicher, S. Grimme, WIREs Comput. Mol. Sci., 2020, 11,
     e01493. DOI: 10.1002/wcms.1493
   
   for GFN2-xTB:
   * C. Bannwarth, S. Ehlert and S. Grimme., J. Chem. Theory Comput., 2019,
     15, 1652-1671. DOI: 10.1021/acs.jctc.8b01176
   for GFN1-xTB:
   * S. Grimme, C. Bannwarth, P. Shushkov, J. Chem. Theory Comput., 2017,
     13, 1989-2009. DOI: 10.1021/acs.jctc.7b00118
   for GFN0-xTB:
   * P. Pracht, E. Caldeweyher, S. Ehlert, S. Grimme, ChemRxiv, 2019, preprint.
     DOI: 10.26434/chemrxiv.8326202.v1
   for GFN-FF:
   * S. Spicher and S. Grimme, Angew. Chem. Int. Ed., 2020, 59, 15665-15673.
     DOI: 10.1002/anie.202004239
   
   for DFT-D4:
   * E. Caldeweyher, C. Bannwarth and S. Grimme, J. Chem. Phys., 2017,
     147, 034112. DOI: 10.1063/1.4993215
   * E. Caldeweyher, S. Ehlert, A. Hansen, H. Neugebauer, S. Spicher,
     C. Bannwarth and S. Grimme, J. Chem. Phys., 2019, 150, 154122.
     DOI: 10.1063/1.5090222
   * E. Caldeweyher, J.-M. Mewes, S. Ehlert and S. Grimme, Phys. Chem. Chem. Phys.
     2020, 22, 8499-8512. DOI: 10.1039/D0CP00502A
   
   for sTDA-xTB:
   * S. Grimme and C. Bannwarth, J. Chem. Phys., 2016, 145, 054103.
     DOI: 10.1063/1.4959605
   
   in the mass-spec context:
   * V. Asgeirsson, C. Bauer and S. Grimme, Chem. Sci., 2017, 8, 4879.
     DOI: 10.1039/c7sc00601b
   * J. Koopman and S. Grimme, ACS Omega 2019, 4, 12, 15120-15133.
     DOI: 10.1021/acsomega.9b02011
   
   for metadynamics refer to:
   * S. Grimme, J. Chem. Theory Comput., 2019, 155, 2847-2862
     DOI: 10.1021/acs.jctc.9b00143
   
   for SPH calculations refer to:
   * S. Spicher and S. Grimme, J. Chem. Theory Comput., 2021, 17, 1701-1714
     DOI: 10.1021/acs.jctc.0c01306
   
   with help from (in alphabetical order)
   P. Atkinson, C. Bannwarth, F. Bohle, G. Brandenburg, E. Caldeweyher
   M. Checinski, S. Dohm, S. Ehlert, S. Ehrlich, I. Gerasimov, J. Koopman
   C. Lavinge, S. Lehtola, F. März, M. Müller, F. Musil, H. Neugebauer
   J. Pisarek, P. Pracht, J. Seibert, P. Shushkov, S. Spicher, M. Stahn
   T. Strunk, J. Stückrath, T. Rose, and J. Unsleber
   
 * started run on 2021/10/08 at 07:32:49.851     

           -------------------------------------------------
          |                Calculation Setup                |
           -------------------------------------------------

          program call               : xtb xtbopt.xyz --sp --alpb thf -P 6
          hostname                   : seskscpg010.prim.scp
          coordinate file            : xtbopt.xyz
          omp threads                :                     6
          number of atoms            :                   108
          number of electrons        :                   280
          charge                     :                     0
          spin                       :                   0.0
          first test random number   :      0.44285028178351

   ID    Z sym.   atoms
    1    7 N      1, 11
    2    6 C      2-6, 10, 12-15, 23, 24, 28, 32, 34, 38, 44, 45, 49, 53, 55,
                  59, 65, 66, 70, 74, 76, 80, 86-91, 93, 96, 99, 100
    3    1 H      7-9, 16-18, 20, 25-27, 29-31, 35-37, 39-41, 46-48, 50-52,
                  56-58, 60-62, 67-69, 71-73, 77-79, 81-85, 92, 94, 95, 97,
                  101-108
    4   77 Ir     19
    5    5 B      21, 42, 63
    6    8 O      22, 33, 43, 54, 64, 75
    7   35 Br     98

molecular fragmentation (1/2 indicates fragments):
111111111111111111111111111111111111111111111111111111111111111111111111
111111111111122222222222222222222222
# atoms in fragment 1/2:    85    23
 fragment masses (1/2) :      730.32      212.11
CMA distance (Bohr)    :   9.340
constraining FC (au)   :  0.0500

           -------------------------------------------------
          |                 G F N 2 - x T B                 |
           -------------------------------------------------

        Reference                      10.1021/acs.jctc.8b01176
      * Hamiltonian:
        H0-scaling (s, p, d)           1.850000    2.230000    2.230000
        zeta-weighting                 0.500000
      * Dispersion:
        s8                             2.700000
        a1                             0.520000
        a2                             5.000000
        s9                             5.000000
      * Repulsion:
        kExp                           1.500000    1.000000
        rExp                           1.000000
      * Coulomb:
        alpha                          2.000000
        third order                    shell-resolved
        anisotropic                    true
        a3                             3.000000
        a5                             4.000000
        cn-shift                       1.200000
        cn-exp                         4.000000
        max-rad                        5.000000

      * Solvation model:               ALPB
        Solvent                        thf
        Parameter file                 internal GFN2-xTB/ALPB
        Dielectric constant                7.6000E+00
        Reference state                gsolv [1 M gas/solution]
        Free energy shift                  5.3248E-03 Eh       3.3414E+00 kcal/mol
        Temperature                        2.9815E+02 K
        Density                            8.8300E-01 kg/L
        Solvent mass                       7.2106E+01 g/mol
        Interaction kernel             P16
        Born radius scaling (c1)           1.7311E+00
        Born radii integrator          GBOBC
        Born offset                        0.0000E+00 a0       0.0000E+00 AA
        H-bond correction              true
        Ion screening                  false
        Surface tension                    1.0000E-05 Eh       1.5569E+01 dyn/cm
        Grid points                               230 per atom
q/qsh data taken from xtbrestart
CAMM data taken from xtbrestart

          ...................................................
          :                      SETUP                      :
          :.................................................:
          :  # basis functions                 273          :
          :  # atomic orbitals                 271          :
          :  # shells                          161          :
          :  # electrons                       280          :
          :  max. iterations                   250          :
          :  Hamiltonian                  GFN2-xTB          :
          :  restarted?                       true          :
          :  GBSA solvation                   true          :
          :  PC potential                    false          :
          :  electronic temp.          300.0000000     K    :
          :  accuracy                    1.0000000          :
          :  -> integral cutoff          0.2500000E+02      :
          :  -> integral neglect         0.1000000E-07      :
          :  -> SCF convergence          0.1000000E-05 Eh   :
          :  -> wf. convergence          0.1000000E-03 e    :
          :  Broyden damping             0.4000000          :
          ...................................................

 iter      E             dE          RMSdq      gap      omega  full diag
   1   -154.6509528 -0.154651E+03  0.391E-05    0.92       0.0  T
   2   -154.6509528 -0.926548E-11  0.348E-05    0.92     276.4  T
   3   -154.6509528 -0.159446E-10  0.251E-05    0.92     383.5  T

   *** convergence criteria satisfied after 3 iterations ***

         #    Occupation            Energy/Eh            Energy/eV
      -------------------------------------------------------------
         1        2.0000           -0.8227426             -22.3880
       ...           ...                  ...                  ...
       134        2.0000           -0.3783183             -10.2946
       135        2.0000           -0.3535363              -9.6202
       136        2.0000           -0.3344224              -9.1001
       137        2.0000           -0.3280646              -8.9271
       138        2.0000           -0.3223243              -8.7709
       139        2.0000           -0.3156048              -8.5880
       140        2.0000           -0.3109627              -8.4617 (HOMO)
       141                         -0.2772530              -7.5444 (LUMO)
       142                         -0.2498394              -6.7985
       143                         -0.2467119              -6.7134
       144                         -0.2231478              -6.0722
       145                         -0.2197849              -5.9807
       ...                                ...                  ...
       271                          4.0938928             111.4005
      -------------------------------------------------------------
                  HL-Gap            0.0337097 Eh            0.9173 eV
             Fermi-level           -0.2941043 Eh           -8.0030 eV

 SCC (total)                   0 d,  0 h,  0 min,  0.119 sec
 SCC setup                      ...        0 min,  0.003 sec (  2.314%)
 Dispersion                     ...        0 min,  0.002 sec (  1.642%)
 classical contributions        ...        0 min,  0.000 sec (  0.140%)
 integral evaluation            ...        0 min,  0.032 sec ( 26.996%)
 iterations                     ...        0 min,  0.035 sec ( 29.845%)
 molecular gradient             ...        0 min,  0.046 sec ( 38.438%)
 printout                       ...        0 min,  0.001 sec (  0.577%)

         :::::::::::::::::::::::::::::::::::::::::::::::::::::
         ::                     SUMMARY                     ::
         :::::::::::::::::::::::::::::::::::::::::::::::::::::
         :: total energy            -152.682932938048 Eh    ::
         :: total w/o Gsasa/hb      -152.642145082760 Eh    ::
         :: gradient norm              0.028330193059 Eh/a0 ::
         :: HOMO-LUMO gap              0.917288526547 eV    ::
         ::.................................................::
         :: SCC energy              -154.650952845173 Eh    ::
         :: -> isotropic ES            0.240080388687 Eh    ::
         :: -> anisotropic ES          0.011512029007 Eh    ::
         :: -> anisotropic XC          0.049664532239 Eh    ::
         :: -> dispersion             -0.156254736073 Eh    ::
         :: -> Gsolv                  -0.049791474276 Eh    ::
         ::    -> Gelec               -0.009003618987 Eh    ::
         ::    -> Gsasa               -0.043650715040 Eh    ::
         ::    -> Ghb                 -0.002461955693 Eh    ::
         ::    -> Gshift               0.005324815444 Eh    ::
         :: repulsion energy           1.957698606023 Eh    ::
         :: add. restraining           0.000000000000 Eh    ::
         :: total charge               0.000000000298 e     ::
         :::::::::::::::::::::::::::::::::::::::::::::::::::::

           -------------------------------------------------
          |                Property Printout                |
           -------------------------------------------------

    * Orbital Energies and Occupations

         #    Occupation            Energy/Eh            Energy/eV
      -------------------------------------------------------------
         1        2.0000           -0.8227426             -22.3880
       ...           ...                  ...                  ...
       128        2.0000           -0.3981651             -10.8346
       129        2.0000           -0.3916874             -10.6584
       130        2.0000           -0.3908475             -10.6355
       131        2.0000           -0.3902794             -10.6200
       132        2.0000           -0.3864825             -10.5167
       133        2.0000           -0.3855318             -10.4909
       134        2.0000           -0.3783183             -10.2946
       135        2.0000           -0.3535363              -9.6202
       136        2.0000           -0.3344224              -9.1001
       137        2.0000           -0.3280646              -8.9271
       138        2.0000           -0.3223243              -8.7709
       139        2.0000           -0.3156048              -8.5880
       140        2.0000           -0.3109627              -8.4617 (HOMO)
       141                         -0.2772530              -7.5444 (LUMO)
       142                         -0.2498394              -6.7985
       143                         -0.2467119              -6.7134
       144                         -0.2231478              -6.0722
       145                         -0.2197849              -5.9807
       146                         -0.2057928              -5.5999
       147                         -0.1974155              -5.3720
       148                         -0.1829595              -4.9786
       149                         -0.1526663              -4.1543
       150                         -0.1299853              -3.5371
       151                         -0.1276110              -3.4725
       ...                                ...                  ...
       271                          4.0938928             111.4005
      -------------------------------------------------------------
                  HL-Gap            0.0337097 Eh            0.9173 eV
             Fermi-level           -0.2941043 Eh           -8.0030 eV

     #   Z          covCN         q      C6AA      α(0)
     1   7 N        2.548    -0.124    23.720     7.233
     2   6 C        2.955     0.078    26.259     8.405
     3   6 C        2.918    -0.042    29.038     8.837
     4   6 C        2.924    -0.022    28.561     8.764
     5   6 C        2.915    -0.043    29.076     8.842
     6   6 C        2.892     0.049    26.892     8.502
     7   1 H        0.926     0.050     2.320     2.382
     8   1 H        0.926     0.055     2.260     2.351
     9   1 H        0.926     0.046     2.377     2.411
    10   6 C        2.952     0.072    26.385     8.425
    11   7 N        2.557    -0.130    23.848     7.253
    12   6 C        2.888     0.043    27.041     8.525
    13   6 C        2.915    -0.045    29.115     8.848
    14   6 C        2.922    -0.025    28.636     8.775
    15   6 C        2.918    -0.044    29.100     8.846
    16   1 H        0.926     0.046     2.367     2.406
    17   1 H        0.926     0.051     2.313     2.378
    18   1 H        0.926     0.070     2.086     2.258
    19  77 Ir       5.936    -0.145   386.906    36.375
    20   1 H        0.977     0.092     1.857     2.130
    21   5 B        2.623     0.407    16.011     6.766
    22   8 O        1.637    -0.408    21.024     6.189
    23   6 C        3.835     0.131    18.442     6.110
    24   6 C        3.755    -0.121    22.880     6.820
    25   1 H        0.925     0.053     2.279     2.361
    26   1 H        0.925     0.046     2.370     2.407
    27   1 H        0.925     0.052     2.297     2.370
    28   6 C        3.755    -0.111    22.673     6.790
    29   1 H        0.925     0.049     2.333     2.389
    30   1 H        0.925     0.043     2.403     2.424
    31   1 H        0.925     0.029     2.601     2.522
    32   6 C        3.838     0.131    18.428     6.107
    33   8 O        1.637    -0.404    20.930     6.175
    34   6 C        3.755    -0.121    22.883     6.821
    35   1 H        0.925     0.054     2.265     2.354
    36   1 H        0.925     0.046     2.369     2.407
    37   1 H        0.925     0.048     2.348     2.396
    38   6 C        3.755    -0.119    22.839     6.814
    39   1 H        0.925     0.047     2.356     2.400
    40   1 H        0.925     0.052     2.297     2.370
    41   1 H        0.925     0.046     2.368     2.406
    42   5 B        2.619     0.407    16.028     6.774
    43   8 O        1.637    -0.384    20.557     6.120
    44   6 C        3.832     0.130    18.459     6.113
    45   6 C        3.755    -0.124    22.938     6.829
    46   1 H        0.925     0.055     2.256     2.349
    47   1 H        0.925     0.056     2.249     2.345
    48   1 H        0.925     0.050     2.326     2.385
    49   6 C        3.755    -0.120    22.851     6.816
    50   1 H        0.925     0.049     2.338     2.391
    51   1 H        0.925     0.045     2.381     2.413
    52   1 H        0.925     0.051     2.304     2.374
    53   6 C        3.830     0.128    18.481     6.117
    54   8 O        1.637    -0.383    20.538     6.117
    55   6 C        3.755    -0.123    22.916     6.826
    56   1 H        0.925     0.053     2.283     2.363
    57   1 H        0.925     0.053     2.278     2.360
    58   1 H        0.925     0.049     2.337     2.391
    59   6 C        3.755    -0.119    22.844     6.815
    60   1 H        0.925     0.043     2.408     2.427
    61   1 H        0.925     0.053     2.278     2.360
    62   1 H        0.925     0.050     2.326     2.385
    63   5 B        2.625     0.406    16.014     6.765
    64   8 O        1.638    -0.379    20.447     6.104
    65   6 C        3.831     0.126    18.516     6.122
    66   6 C        3.755    -0.127    23.000     6.838
    67   1 H        0.925     0.056     2.252     2.347
    68   1 H        0.925     0.054     2.266     2.354
    69   1 H        0.925     0.049     2.328     2.386
    70   6 C        3.755    -0.129    23.040     6.844
    71   1 H        0.925     0.061     2.188     2.313
    72   1 H        0.925     0.051     2.313     2.378
    73   1 H        0.925     0.053     2.286     2.364
    74   6 C        3.830     0.128    18.483     6.117
    75   8 O        1.636    -0.384    20.548     6.119
    76   6 C        3.755    -0.124    22.933     6.828
    77   1 H        0.925     0.051     2.302     2.373
    78   1 H        0.925     0.054     2.272     2.357
    79   1 H        0.925     0.055     2.264     2.353
    80   6 C        3.755    -0.122    22.897     6.823
    81   1 H        0.925     0.041     2.442     2.444
    82   1 H        0.925     0.050     2.325     2.385
    83   1 H        0.925     0.056     2.252     2.347
    84   1 H        0.926     0.052     2.297     2.370
    85   1 H        0.926     0.050     2.324     2.384
    86   6 C        2.832    -0.032    28.789     8.792
    87   6 C        2.968     0.014    27.703     8.633
    88   6 C        2.992    -0.048    29.180     8.861
    89   6 C        3.813    -0.070    21.837     6.651
    90   6 C        2.932    -0.045    29.109     8.848
    91   6 C        2.918     0.069    26.465     8.436
    92   1 H        0.926     0.058     2.218     2.329
    93   6 C        3.850    -0.005    20.642     6.462
    94   1 H        0.925     0.052     2.295     2.369
    95   1 H        0.924     0.035     2.521     2.483
    96   6 C        2.984    -0.052    29.275     8.875
    97   1 H        0.926     0.043     2.413     2.429
    98  35 Br       1.061    -0.211   190.909    22.278
    99   6 C        3.755    -0.111    22.675     6.790
   100   6 C        3.756    -0.108    22.612     6.780
   101   1 H        0.924     0.030     2.589     2.516
   102   1 H        0.926     0.046     2.368     2.407
   103   1 H        0.925     0.038     2.474     2.460
   104   1 H        0.925     0.035     2.519     2.482
   105   1 H        0.925     0.038     2.476     2.461
   106   1 H        0.925     0.038     2.473     2.459
   107   1 H        0.925     0.039     2.459     2.452
   108   1 H        0.925     0.025     2.665     2.553

 Mol. C6AA /au·bohr⁶  :     126389.630598
 Mol. C8AA /au·bohr⁸  :    3468429.422601
 Mol. α(0) /au        :        550.937627


Wiberg/Mayer (AO) data.
largest (>0.10) Wiberg bond orders for each atom

 ---------------------------------------------------------------------------
     #   Z sym  total        # sym  WBO       # sym  WBO       # sym  WBO
 ---------------------------------------------------------------------------
     1   7 N    3.397 --     6 C    1.384     2 C    1.302    19 Ir   0.445
     2   6 C    3.978 --     3 C    1.348     1 N    1.302    10 C    1.095
     3   6 C    3.988 --     4 C    1.484     2 C    1.348     9 H    0.962
                             6 C    0.105
     4   6 C    3.983 --     3 C    1.484     5 C    1.379    84 H    0.969
     5   6 C    3.979 --     6 C    1.462     4 C    1.379     8 H    0.969
     6   6 C    3.978 --     5 C    1.462     1 N    1.384     7 H    0.957
                             3 C    0.105
     7   1 H    0.997 --     6 C    0.957
     8   1 H    0.996 --     5 C    0.969
     9   1 H    0.997 --     3 C    0.962
    10   6 C    3.977 --    15 C    1.357    11 N    1.290     2 C    1.095
    11   7 N    3.406 --    12 C    1.380    10 C    1.290    19 Ir   0.440
    12   6 C    3.975 --    13 C    1.460    11 N    1.380    18 H    0.951
                            15 C    0.103
    13   6 C    3.982 --    12 C    1.460    14 C    1.383    17 H    0.969
    14   6 C    3.981 --    15 C    1.476    13 C    1.383    85 H    0.969
    15   6 C    3.988 --    14 C    1.476    10 C    1.357    16 H    0.961
                            12 C    0.103
    16   1 H    0.997 --    15 C    0.961
    17   1 H    0.997 --    13 C    0.969
    18   1 H    0.995 --    12 C    0.951
    19  77 Ir   5.158 --    63 B    0.847    42 B    0.839    21 B    0.700
                            86 C    0.590    20 H    0.542     1 N    0.445
                            11 N    0.440
    20   1 H    0.989 --    19 Ir   0.542    86 C    0.339
    21   5 B    3.278 --    33 O    1.115    22 O    1.096    19 Ir   0.700
    22   8 O    2.193 --    21 B    1.096    23 C    0.940
    23   6 C    3.942 --    24 C    0.997    28 C    0.991    32 C    0.941
                            22 O    0.940
    24   6 C    3.993 --    23 C    0.997    26 H    0.983    27 H    0.983
                            25 H    0.983
    25   1 H    0.997 --    24 C    0.983
    26   1 H    0.997 --    24 C    0.983
    27   1 H    0.997 --    24 C    0.983
    28   6 C    3.996 --    23 C    0.991    31 H    0.985    29 H    0.984
                            30 H    0.984
    29   1 H    0.997 --    28 C    0.984
    30   1 H    0.998 --    28 C    0.984
    31   1 H    0.999 --    28 C    0.985
    32   6 C    3.939 --    38 C    0.997    34 C    0.991    23 C    0.941
                            33 O    0.937
    33   8 O    2.204 --    21 B    1.115    32 C    0.937
    34   6 C    3.994 --    32 C    0.991    36 H    0.983    37 H    0.982
                            35 H    0.979
    35   1 H    0.997 --    34 C    0.979
    36   1 H    0.997 --    34 C    0.983
    37   1 H    0.997 --    34 C    0.982
    38   6 C    3.994 --    32 C    0.997    41 H    0.984    39 H    0.983
                            40 H    0.982
    39   1 H    0.998 --    38 C    0.983
    40   1 H    0.997 --    38 C    0.982
    41   1 H    0.997 --    38 C    0.984
    42   5 B    3.335 --    54 O    1.117    43 O    1.116    19 Ir   0.839
    43   8 O    2.227 --    42 B    1.116    44 C    0.935
    44   6 C    3.935 --    45 C    0.996    49 C    0.991    53 C    0.937
                            43 O    0.935
    45   6 C    3.992 --    44 C    0.996    48 H    0.983    47 H    0.981
                            46 H    0.981
    46   1 H    0.997 --    45 C    0.981
    47   1 H    0.997 --    45 C    0.981
    48   1 H    0.996 --    45 C    0.983
    49   6 C    3.994 --    44 C    0.991    50 H    0.983    51 H    0.982
                            52 H    0.979
    50   1 H    0.997 --    49 C    0.983
    51   1 H    0.998 --    49 C    0.982
    52   1 H    0.997 --    49 C    0.979
    53   6 C    3.936 --    55 C    0.996    59 C    0.993    44 C    0.937
                            54 O    0.933
    54   8 O    2.228 --    42 B    1.117    53 C    0.933
    55   6 C    3.993 --    53 C    0.996    58 H    0.983    57 H    0.983
                            56 H    0.982
    56   1 H    0.997 --    55 C    0.982
    57   1 H    0.997 --    55 C    0.983
    58   1 H    0.996 --    55 C    0.983
    59   6 C    3.994 --    53 C    0.993    62 H    0.983    61 H    0.983
                            60 H    0.981
    60   1 H    0.998 --    59 C    0.981
    61   1 H    0.996 --    59 C    0.983
    62   1 H    0.997 --    59 C    0.983
    63   5 B    3.359 --    75 O    1.120    64 O    1.110    19 Ir   0.847
    64   8 O    2.229 --    63 B    1.110    65 C    0.937
    65   6 C    3.937 --    70 C    0.996    66 C    0.991    74 C    0.938
                            64 O    0.937
    66   6 C    3.993 --    65 C    0.991    69 H    0.983    68 H    0.982
                            67 H    0.979
    67   1 H    0.997 --    66 C    0.979
    68   1 H    0.997 --    66 C    0.982
    69   1 H    0.996 --    66 C    0.983
    70   6 C    3.992 --    65 C    0.996    72 H    0.983    73 H    0.982
                            71 H    0.982
    71   1 H    0.996 --    70 C    0.982
    72   1 H    0.996 --    70 C    0.983
    73   1 H    0.997 --    70 C    0.982
    74   6 C    3.934 --    76 C    0.997    80 C    0.992    65 C    0.938
                            75 O    0.933
    75   8 O    2.231 --    63 B    1.120    74 C    0.933
    76   6 C    3.992 --    74 C    0.997    77 H    0.982    79 H    0.982
                            78 H    0.982
    77   1 H    0.996 --    76 C    0.982
    78   1 H    0.997 --    76 C    0.982
    79   1 H    0.997 --    76 C    0.982
    80   6 C    3.995 --    74 C    0.992    81 H    0.984    82 H    0.983
                            83 H    0.983
    81   1 H    0.998 --    80 C    0.984
    82   1 H    0.997 --    80 C    0.983
    83   1 H    0.996 --    80 C    0.983
    84   1 H    0.996 --     4 C    0.969
    85   1 H    0.996 --    14 C    0.969
    86   6 C    3.942 --    88 C    1.369    87 C    1.356    19 Ir   0.590
                            20 H    0.339
    87   6 C    3.986 --    90 C    1.403    86 C    1.356    89 C    1.012
    88   6 C    3.987 --    91 C    1.431    86 C    1.369    92 H    0.956
    89   6 C    3.995 --    87 C    1.012    93 C    0.975    95 H    0.973
                            94 H    0.951
    90   6 C    3.985 --    96 C    1.436    87 C    1.403    97 H    0.964
    91   6 C    3.921 --    88 C    1.431    96 C    1.396    98 Br   0.944
    92   1 H    0.996 --    88 C    0.956
    93   6 C    3.994 --    99 C    1.011   100 C    1.008    89 C    0.975
                           101 H    0.966
    94   1 H    0.997 --    89 C    0.951
    95   1 H    0.998 --    89 C    0.973
    96   6 C    3.983 --    90 C    1.436    91 C    1.396   102 H    0.968
    97   1 H    0.996 --    90 C    0.964
    98  35 Br   1.072 --    91 C    0.944
    99   6 C    3.996 --    93 C    1.011   103 H    0.986   105 H    0.986
                           104 H    0.985
   100   6 C    3.996 --    93 C    1.008   106 H    0.987   107 H    0.986
                           108 H    0.986
   101   1 H    0.999 --    93 C    0.966
   102   1 H    0.996 --    96 C    0.968
   103   1 H    0.998 --    99 C    0.986
   104   1 H    0.999 --    99 C    0.985
   105   1 H    0.998 --    99 C    0.986
   106   1 H    0.998 --   100 C    0.987
   107   1 H    0.997 --   100 C    0.986
   108   1 H    0.999 --   100 C    0.986
 ---------------------------------------------------------------------------

Topologies differ in total number of bonds
Writing topology from bond orders to xtbtopo.mol

molecular dipole:
                 x           y           z       tot (Debye)
 q only:       -0.724       0.322      -2.257
   full:       -2.072       0.689      -3.249       9.950
molecular quadrupole (traceless):
                xx          xy          yy          xz          yz          zz
 q only:       16.962       4.527      10.758     -15.082      14.638     -27.720
  q+dip:       19.628       5.056      15.367     -26.862      18.379     -34.996
   full:       18.292       6.882      17.765     -28.173      16.316     -36.057


           -------------------------------------------------
          | TOTAL ENERGY             -152.682932938048 Eh   |
          | GRADIENT NORM               0.028330193059 Eh/α |
          | HOMO-LUMO GAP               0.917288526547 eV   |
           -------------------------------------------------

------------------------------------------------------------------------
 * finished run on 2021/10/08 at 07:32:50.015     
------------------------------------------------------------------------
 total:
 * wall-time:     0 d,  0 h,  0 min,  0.164 sec
 *  cpu-time:     0 d,  0 h,  0 min,  0.960 sec
 * ratio c/w:     5.846 speedup
 SCF:
 * wall-time:     0 d,  0 h,  0 min,  0.120 sec
 *  cpu-time:     0 d,  0 h,  0 min,  0.718 sec
 * ratio c/w:     5.966 speedup

