108
 energy: -152.682932937985 gnorm: 0.000441092184 xtb: 6.4.0 (f63f532)
N        -0.90097640218442   -1.84336036670686   -0.54210434694761
C        -2.03329039238287   -1.18187374630999   -0.85917875514339
C        -2.80131091971753   -1.56172612335646   -1.96702679043675
C        -2.40352071017023   -2.62484598171678   -2.74691935648848
C        -1.23638678996305   -3.30353308507394   -2.40326786498812
C        -0.53005894234789   -2.87137151997561   -1.30131098864181
H         0.37827114117166   -3.37126212396798   -0.99506936124839
H        -0.89305193145007   -4.14736281513279   -2.97927579150331
H        -3.70215013628550   -1.02696577463502   -2.21903443222630
C        -2.38686953008597   -0.06005893447977    0.00040520617266
N        -1.52690203830781    0.21865051452965    1.00851545811433
C        -1.81473650086724    1.22760571419371    1.82942489172757
C        -2.93653205449262    2.01978529309861    1.70085985411583
C        -3.82151673277600    1.75634476674381    0.65815975281065
C        -3.53989327965363    0.70888292401624   -0.19229109147220
H        -4.21633082976473    0.48744443111342   -1.00085409962608
H        -3.12165609090909    2.81838537878209    2.40081022542781
H        -1.09762539871777    1.40166453223224    2.61631665729641
Ir        0.42149999999971   -0.81649999999992    0.91329999999972
H         0.87260000000025   -2.23030000000013    1.54049999999998
B         0.60952404161913    0.66686752536740   -0.56438356564258
O        -0.02295035730784    0.52681508986826   -1.78434566938873
C         0.09439581350265    1.73674111947817   -2.54242062019704
C         0.35768859763483    1.39379970923417   -4.00661356373514
H         1.19943281024619    0.71522256299819   -4.09672251065452
H         0.55431377658341    2.29931594057997   -4.57460972538771
H        -0.52030807590780    0.90261672897877   -4.41973624908963
C        -1.24814688631241    2.47226400327989   -2.42998680009521
H        -1.24594679072120    3.38305029458183   -3.02124454430283
H        -2.03582668702461    1.81523138190354   -2.79259904957209
H        -1.45959023106743    2.70972756999418   -1.38946884845456
C         1.25896001688700    2.48692007079323   -1.81437528599950
O         1.25301085331192    1.88005664951997   -0.51379442712509
C         2.62764298721347    2.19196278479881   -2.43897651267093
H         2.79089181695505    1.11766113136179   -2.44211984774023
H         2.69883171124033    2.59485056722531   -3.44501119780097
H         3.40133880488649    2.64396575731687   -1.82252574018311
C         1.07572233527319    3.99808819645529   -1.68429944584030
H         0.20314500955537    4.24117138631718   -1.08603778255962
H         1.95004748355290    4.42133897933022   -1.19508342599430
H         0.97763298212391    4.44668674852278   -2.66949976162168
B         1.60212021469565    0.59447968818915    1.91053556834237
O         2.96899531734549    0.59939750427985    2.02229239303607
C         3.42674914489810    1.82786550042103    2.60459818031578
C         4.49453472518394    1.52349202822036    3.65619641171941
H         4.12758766565132    0.83194534248998    4.40743584346411
H         5.35116834984602    1.06412612390265    3.16941245877456
H         4.81774233651060    2.44116749916825    4.13941653232180
C         4.05532372524011    2.63976501559974    1.46616314876229
H         4.39003701500962    3.61436833621745    1.80768267762922
H         4.91110679633481    2.09056957944469    1.07947170820644
H         3.33010721750344    2.74334646349311    0.66393262576439
C         2.10639157173889    2.46674659831292    3.16994025080798
O         1.07281036861391    1.68410676146475    2.55472741001334
C         1.89573684338447    3.93346783682932    2.79437480799803
H         1.82349494021399    4.04160389368042    1.71732365929257
H         0.96411274325194    4.28041096014517    3.23447746630190
H         2.71029947118293    4.54310701692512    3.17495166450711
C         1.94968860978374    2.31345957113364    4.68713276739210
H         2.02023724424858    1.26828424308525    4.97073843486971
H         2.70368606133539    2.88506905739584    5.21869425037112
H         0.96481751045496    2.67312782377997    4.97617192773479
B         2.27819999999919   -1.33089999999995    0.17410000000038
O         3.06229967589722   -2.31529798063096    0.73997671584413
C         4.34235694989286   -2.37054141662123    0.09884695701145
C         5.32895928326186   -1.65446027730169    1.02710922564202
H         4.96153406085056   -0.65196351466173    1.22633750730841
H         5.36343248050266   -2.19073593759722    1.97235114619016
H         6.32748222611366   -1.62139282027272    0.60261094709704
C         4.76742507180285   -3.83001058390275   -0.06301922301737
H         4.90079445602936   -4.26596359953487    0.92358085579322
H         5.70767727530581   -3.88816672558511   -0.60403010680614
H         4.01187352965106   -4.40724400043646   -0.58537155305234
C         4.08644738115287   -1.59929995601792   -1.24288597646798
O         2.88522727030957   -0.85872254378219   -0.96511386695670
C         5.20003676221260   -0.63416309989811   -1.64399574728301
H         6.14246462460296   -1.16709308331643   -1.73484354550175
H         4.95901449258933   -0.18483850869302   -2.60408612693497
H         5.29639676771237    0.16013538719221   -0.91180305728635
C         3.77674454585256   -2.52897155672254   -2.42391404513811
H         2.96274372953630   -3.20179461967810   -2.16817822124908
H         3.45793096934084   -1.92392652376779   -3.26942860812554
H         4.65366930694586   -3.10175689712424   -2.70954313146290
H        -2.98572874590242   -2.92501315078769   -3.60476247249471
H        -4.70873608151048    2.35501840954697    0.51835309577671
C         0.23590000000159   -1.68139999999664    2.96030000000190
C        -1.00315096102068   -2.08508446159144    3.48129380275418
C         1.29701642712909   -1.51517116424892    3.85520539024415
C        -2.15070951245320   -2.52448945257051    2.61540431473654
C        -1.18089699992532   -2.13964340278597    4.86212800460412
C         1.09257449972194   -1.60718484783626    5.21575299458078
H         2.28597362506133   -1.32032096446983    3.47166418483887
C        -2.00057446388358   -3.98140082919683    2.14226909193605
H        -2.21585578186051   -1.89154641898564    1.73583122660562
H        -3.08708701634340   -2.43018772330283    3.17105928284160
C        -0.15134895807210   -1.88783261374903    5.74902864634342
H        -2.15141490450658   -2.40428884177593    5.25805603086037
Br        2.57780477399619   -1.35558811052374    6.40309740012917
C        -2.05732270003843   -4.95678272333384    3.31466901747818
C        -3.09815384429613   -4.30887561116814    1.13133324965523
H        -1.02721598961526   -4.07735125236604    1.64900974147654
H        -0.30523775273804   -1.93772850369958    6.81584450461349
H        -3.01919778209225   -4.88757699166493    3.81962207460870
H        -1.27282750010307   -4.73785496324567    4.03456684483850
H        -1.92736672251369   -5.97866171714056    2.96528751670470
H        -4.08015916713882   -4.19268357349934    1.58635271627395
H        -3.00165023633794   -5.33428283695316    0.78188131681755
H        -3.03877597267297   -3.64744893059830    0.27005295156094
