111
 energy: -163.130819175190 gnorm: 0.001365739240 xtb: 6.4.1 (1a32961)
N        -0.96510000000000   -2.11530000000000   -0.24090000000000
C        -2.24700000000000   -1.69840000000000   -0.36220000000000
C        -3.14040000000000   -2.36820000000000   -1.21200000000001
C        -2.70220000000000   -3.47560000000001   -1.93050000000000
C        -1.37780000000001   -3.89880000000000   -1.78760000000001
C        -0.54290000000000   -3.18670000000000   -0.93510000000000
H         0.49810000000000   -3.45630000000000   -0.78940000000000
H        -0.99570000000000   -4.76030000000000   -2.32770000000000
H        -4.16500000000000   -2.02890000000000   -1.31830000000000
C        -2.62130000000000   -0.50950000000001    0.44100000000000
N        -1.62600000000000    0.07330000000000    1.16020000000000
C        -1.89680000000000    1.15240000000000    1.91690000000000
C        -3.17230000000000    1.70330000000000    1.99650000000000
C        -4.20510000000000    1.11740000000000    1.26270000000000
C        -3.92610000000000    0.00250000000000    0.47820000000000
H        -4.71960000000000   -0.46420000000000   -0.09520000000000
H        -3.34630000000000    2.57510000000000    2.62070000000000
H        -1.04450000000000    1.57420000000000    2.43690000000000
Ir        0.42150000000000   -0.81650000000000    0.91330000000000
H         0.87260000000000   -2.23030000000000    1.54050000000000
B         0.50670000000000    0.41560000000000   -0.81540000000000
O         0.19500000000000   -0.04700000000000   -2.09150000000000
C         0.00650000000000    1.10040000000000   -2.95430000000000
C         0.49020000000000    0.74740000000000   -4.35780000000000
H         1.51610000000000    0.37380000000000   -4.33700000000000
H         0.44730000000000    1.62240000000000   -5.01670000000000
H        -0.14740000000000   -0.03390000000000   -4.78430000000000
C        -1.50120000000000    1.39560000000000   -2.96670000000000
H        -1.75370000000000    2.21460000000000   -3.64850000000000
H        -2.03200000000000    0.49450000000000   -3.28930000000000
H        -1.85170000000000    1.65210000000000   -1.96220000000000
C         0.84230000000001    2.20670000000000   -2.22040000000000
O         0.75200000000000    1.78260000000000   -0.83690000000000
C         2.32929999999998    2.18620000000000   -2.59900000000001
H         2.74130000000000    1.18500000000000   -2.45750000000000
H         2.48870000000000    2.51300000000000   -3.63179999999999
H         2.87200000000000    2.86270000000000   -1.93200000000000
C         0.28440000000000    3.62290000000000   -2.33660000000000
H        -0.72650000000001    3.69040000000000   -1.92910000000000
H         0.92130000000000    4.31480000000000   -1.77610000000000
H         0.26430000000000    3.94810000000000   -3.38320000000000
B         1.56300000000000    0.60960000000000    1.84840000000000
O         2.92780000000000    0.55230000000000    2.15020000000000
C         3.36330000000001    1.88660000000000    2.50260000000001
C         4.53140000000000    1.78590000000000    3.47740000000001
H         4.27910000000000    1.16090000000000    4.33690000000000
H         5.39390000000000    1.33790000000000    2.97340000000000
H         4.82390000000000    2.77870000000000    3.83820000000000
C         3.79700000000000    2.56850000000000    1.19670000000000
H         4.20020000000000    3.57090000000000    1.37680000000000
H         4.56740000000000    1.95560000000000    0.72110000000000
H         2.95240000000000    2.63260000000000    0.50540000000000
C         2.05040000000000    2.50090000000000    3.09319999999999
O         1.03750000000000    1.81620000000000    2.31910000000000
C         1.89100000000000    4.00450000000000    2.88650000000001
H         1.87290000000000    4.25440000000000    1.82409999999999
H         0.94940000000000    4.34260000000000    3.33170000000000
H         2.71080000000000    4.55150000000000    3.36630000000000
C         1.82470000000000    2.13200000000001    4.56520000000000
H         1.92610000000000    1.05330000000001    4.71320000000000
H         2.52610000000000    2.65280000000000    5.22539999999999
H         0.80630000000000    2.41580000000000    4.84900000000000
B         2.27820000000000   -1.33090000000000    0.17410000000000
O         2.89460000000000   -2.57740000000000    0.38450000000000
C         4.26930000000000   -2.48200000000000   -0.07210000000000
C         5.10900000000000   -2.05380000000000    1.14010000000001
H         4.76350000000000   -1.08740000000000    1.51750000000000
H         4.98050000000000   -2.79470000000000    1.93590000000000
H         6.17420000000000   -1.99290000000000    0.89300000000000
C         4.71950000000000   -3.84660000000000   -0.58470000000000
H         4.75280000000000   -4.56130000000000    0.24420000000000
H         5.72330000000000   -3.78370000000000   -1.02010000000000
H         4.03500000000000   -4.23600000000000   -1.34169999999999
C         4.16440000000000   -1.36220000000000   -1.16300000000000
O         3.08520000000000   -0.55030000000000   -0.65400000000000
C         5.40720000000000   -0.48870000000000   -1.31550000000001
H         6.27320000000000   -1.09010000000000   -1.61530000000000
H         5.23300000000000    0.26930000000000   -2.08590000000000
H         5.64270000000000    0.02650000000001   -0.38239999999999
C         3.71800000000000   -1.89830000000001   -2.53110000000000
H         2.82530000000000   -2.52160000000000   -2.42740000000000
H         3.46090000000000   -1.05250000000000   -3.17550000000000
H         4.50570000000000   -2.48290000000000   -3.01789999999999
H        -3.38499999999999   -4.00129999999999   -2.59310000000000
H        -5.21400000000000    1.52080000000000    1.29960000000001
C         0.23590000000001   -1.68140000000000    2.96030000000000
C        -1.05663532273441   -1.89798224399884    3.44013653752845
C         1.28663947118284   -1.87194478145714    3.88002725456053
C        -1.30766380830275   -2.14448363170194    4.79684802917345
H        -1.90966125244382   -1.94011318564902    2.77320151473475
C         2.69983589577428   -2.11235132231980    3.45840226126085
C         1.02938894648609   -1.95670704880169    5.24648993142967
C        -2.58220988054635   -2.61248642402999    5.30131004524212
C        -0.26018061934729   -2.08029045373760    5.71922310271905
H         3.13198394180932   -1.20932126989748    3.03490354605754
H         2.71975430193213   -2.87094098242442    2.67726412204515
H         3.30267265273732   -2.44642295722082    4.30303708146740
H         1.85671409453223   -2.00655275067613    5.94376591796905
N        -3.74268925836270   -2.68381194654807    4.71136569215500
O        -2.56432012291791   -3.14452360763370    6.56500885569240
H        -0.45244088478792   -2.20663694822848    6.77636744889898
C        -4.57140997831017   -3.30310553568913    5.61848742498394
C        -3.82817659375692   -3.59420228578481    6.76921163167305
C        -5.91696139462291   -3.65695028011741    5.55539871416206
C        -4.35417234000508   -4.24458228411752    7.87166548034939
C        -6.45592962125515   -4.30448108021057    6.65826139632223
H        -6.50709717791262   -3.43414693033340    4.67922497741262
C        -5.69315613222230   -4.59848731565462    7.79024379934118
H        -3.74736623342569   -4.46527415785947    8.73631590780112
H        -7.49833250609665   -4.59531249458248    6.64247986281173
H        -6.15319290852793   -5.11498167223449    8.62347373795134
