118
 energy: -179.843648245433 gnorm: 0.000379974410 xtb: 6.4.1 (1a32961)
N        -0.89768114661357   -1.99688801825121   -0.46032426078696
C        -2.15518697683391   -1.53167887730886   -0.57409959127528
C        -2.98018517012601   -1.92758309730406   -1.63302474758462
C        -2.50804188532084   -2.82030701926599   -2.57070212236368
C        -1.21113498548214   -3.30690957037141   -2.43198647611654
C        -0.45368229208738   -2.85920735124021   -1.36929735979661
H         0.56190997794066   -3.20012923209718   -1.22915465355947
H        -0.80170271935322   -4.00987287435308   -3.13914095948986
H        -3.97411056493321   -1.52308630967847   -1.73448604742368
C        -2.58886818964753   -0.58291483400540    0.44563847058137
N        -1.63119053839110   -0.08487595575431    1.25338166528137
C        -1.98001136919876    0.78901779936653    2.19408242403451
C        -3.27859720032703    1.21019142289474    2.39842446140061
C        -4.28184630512823    0.69246004384619    1.58298467445230
C        -3.92931281146245   -0.20788242789662    0.60035708183223
H        -4.69162258718245   -0.63411157078696   -0.03086279889428
H        -3.50527700350416    1.91557647370802    3.18128385560811
H        -1.16783706185108    1.16117560101845    2.79929645116220
Ir        0.42149999999582   -0.81649999999831    0.91330000000026
H         0.87260000000006   -2.23030000000056    1.54050000000049
B         0.35117307058637    0.66230938862118   -0.56781062442508
O        -0.47323560664643    0.48118298226406   -1.66794429673499
C        -0.61499053136986    1.71163208438708   -2.38244275060008
C        -0.63402535331677    1.44106871943658   -3.88475039466577
H         0.22694533179427    0.85265571938556   -4.18395014647586
H        -0.64255932238261    2.37997427706936   -4.43257389716561
H        -1.53200008590813    0.88016207506618   -4.13369353372635
C        -1.96283718885779    2.31698761313353   -1.96213039258799
H        -2.16638569880950    3.23853670349246   -2.49943498562550
H        -2.74982188336094    1.59762178599159   -2.18120275623368
H        -1.96834358921880    2.50620839208730   -0.89052377195763
C         0.60635268841903    2.54384149762184   -1.87211503150142
O         0.89507690120602    1.92628811817769   -0.61166741660720
C         1.85101530221439    2.36214059643612   -2.74969371676655
H         2.07865345150868    1.30223742185684   -2.83509257943090
H         1.71075121475969    2.80175375870080   -3.73301605311802
H         2.69461447901878    2.84532631418608   -2.26190029855138
C         0.33442181335179    4.03411728825999   -1.67430938646341
H        -0.41175126651993    4.19830464113728   -0.90281629038942
H         1.25382871851640    4.52767131309624   -1.36782643826129
H        -0.00488297947181    4.47760948625451   -2.60698998315097
B         1.51474549664261    0.69736105324673    1.83419862026726
O         2.87124832303696    0.89341669835805    1.83625573573495
C         3.19298714125743    2.17300768351227    2.39743638256018
C         4.41237362135224    2.03758110446877    3.30929599212698
H         4.25530573369026    1.27247080400902    4.06196317066880
H         5.27102888240922    1.74771217084375    2.70921139831058
H         4.62661517562764    2.98701410740474    3.79244617173132
C         3.53901447822205    3.09219537758789    1.21959330124677
H         3.75950958848776    4.10224054896261    1.55150817423783
H         4.41214673638869    2.69016701637493    0.71038933925342
H         2.71072051318866    3.09156030216981    0.51628626403733
C         1.86348928801817    2.58026354456113    3.12669120304179
O         0.89391738886066    1.70088257030847    2.54345521942286
C         1.42265720930821    4.02529723406714    2.89586312445981
H         1.23137103336044    4.20034485381366    1.84235525178833
H         0.50152736939382    4.20715861743393    3.44426969194295
H         2.18377682317779    4.71441143448461    3.25096449280732
C         1.88360951233612    2.29208570335581    4.63351125440454
H         2.11772876437227    1.24571785346640    4.80836931373403
H         2.60217465771425    2.92595640284568    5.14387525884464
H         0.89316110301268    2.48473612036731    5.03946238606528
B         2.27820000000037   -1.33089999999657    0.17409999999640
O         3.25655346896165   -2.05547041534633    0.81619844635092
C         4.46508352128413   -2.05231186633289    0.04664168906598
C         5.39937053198970   -1.02753390329470    0.69858937411669
H         4.88648006635358   -0.07205223690958    0.75878121419425
H         5.61345658686490   -1.35436827491199    1.71300512046436
H         6.33217800275553   -0.93205447180837    0.15138503332071
C         5.11201648925985   -3.43609660948949    0.10791806338636
H         5.40368337445195   -3.64043230443407    1.13461644424971
H         5.99662794331526   -3.46282240956554   -0.52227978762068
H         4.42002074965459   -4.21119768991367   -0.20400575413494
C         3.97112709616950   -1.61352461309815   -1.37767116604612
O         2.68997648703758   -1.02687382789134   -1.10584049502415
C         4.85465320609696   -0.57979417195893   -2.07452531614128
H         5.86258458178677   -0.96541096246144   -2.20010812265672
H         4.43864904987589   -0.36050786994220   -3.05488934932937
H         4.88133239150386    0.34241957089440   -1.50434669109424
C         3.73937839123850   -2.79470421127829   -2.33030506502629
H         3.09103073841512   -3.53290406129369   -1.86630445255364
H         3.24460177039726   -2.42596741907610   -3.22563944622414
H         4.67974527330938   -3.25894231787800   -2.61155953372627
H        -3.12950335502090   -3.12957333410083   -3.39748743123371
H        -5.31244143976309    0.98355253288106    1.71874964598258
C         0.23590000000738   -1.68140000001567    2.96029999999079
C        -1.00179927881108   -2.12718526154377    3.38562841147610
C         1.24405996247516   -1.47560903580287    3.91483247104588
C        -1.31150804105754   -2.28871887080870    4.74706255323503
H        -1.74517871465720   -2.37120340378102    2.64426179415571
C         0.97231719107905   -1.63397904841582    5.24774574989851
H         2.23351450450450   -1.20585939988194    3.58063259507209
C        -0.29656918357958   -2.03381319348837    5.70020795825217
N        -2.55855828472346   -2.70732497047666    5.17182785888021
H         1.74608606993795   -1.47141047229373    5.98581670933883
C        -0.53955237468780   -2.21124697946020    7.09199337697803
B        -2.83698063368781   -2.94913206309272    6.53533980514277
C        -3.58715287840380   -2.86424636997778    4.15941693217979
C        -1.73519864211769   -2.65683589753718    7.54360048440328
H         0.27797659146592   -1.98253251835710    7.76566773232145
C        -4.22000668985143   -3.53614902057734    7.02998328576424
H        -4.53345866399513   -3.07836923903147    4.64844530280669
H        -3.35018689340983   -3.68587264113262    3.47995517456869
H        -3.69409878606739   -1.94525511462565    3.57901567090308
H        -1.86666676045914   -2.79106477725033    8.60980600140906
C        -5.00790580010692   -2.83842737973489    7.94713662704516
C        -4.64695257211130   -4.81208391397157    6.65448978956537
C        -6.17280642858315   -3.37447208555995    8.46290375212743
H        -4.69897258394057   -1.85369469384573    8.26313717995679
C        -5.80409615857043   -5.37089003247859    7.16328068909395
H        -4.05280477316452   -5.38456219728942    5.95822770598688
C        -6.57218497065453   -4.64548852528159    8.06662727442872
H        -6.77213202047922   -2.81953046311450    9.16930508372428
H        -6.11858804906545   -6.36008398309060    6.86544544546593
C        -7.80518234261941   -5.25612849341432    8.65023703255550
F        -8.73839914219327   -4.35108965433188    9.00443869740357
F        -8.42445402709220   -6.11602555473906    7.81712765884569
F        -7.55393193874306   -5.96983120172349    9.77647893493754
