96
 energy: -137.537599110495 gnorm: 0.000271009976 xtb: 6.4.1 (1a32961)
N        -0.92753535819634   -1.99648929665031   -0.39546088646668
C        -2.13959765426334   -1.45253434975454   -0.62146260390377
C        -2.98538627826831   -1.96811201800746   -1.61100825287007
C        -2.57868051660467   -3.04428667500716   -2.36905878816411
C        -1.32400618665615   -3.59667843347761   -2.12308829453518
C        -0.54577801808677   -3.03625297071391   -1.13207176908973
H         0.43190615864475   -3.43546785311067   -0.90045781169039
H        -0.96630634887637   -4.44119132911837   -2.68938909145095
H        -3.95286423116793   -1.52874209037222   -1.78956503043824
C        -2.50015858205304   -0.31760478862142    0.21880603940569
N        -1.56807575932668    0.09494238634222    1.10568128420049
C        -1.86178059162607    1.11460956436362    1.90978401791643
C        -3.06624488742791    1.78731718972281    1.88046308360697
C        -4.03004137863323    1.38598689172069    0.95916099280713
C        -3.73960916488101    0.32663708422820    0.12648533800110
H        -4.47502152252213   -0.00137179670339   -0.58906826882669
H        -3.25102826390003    2.60211130811871    2.56159165241679
H        -1.08015333603008    1.40061518228606    2.59628558310545
Ir        0.42150000000047   -0.81649999999879    0.91330000000132
H         0.87260000000032   -2.23030000000005    1.54050000000001
B         0.46655538944113    0.56895627006880   -0.64824342276326
O        -0.12107552447612    0.23447663538144   -1.85439055279872
C        -0.16622696067722    1.37604812243797   -2.71591884520026
C         0.17414575415135    0.95044130366785   -4.14227451649338
H         1.10502800745920    0.39367427346275   -4.16386612133642
H         0.25243027539135    1.82240877088622   -4.78644847615602
H        -0.61580871887018    0.30481907038317   -4.51871228140275
C        -1.60511945121807    1.91069488605220   -2.67932201678468
H        -1.72447293842776    2.76198608893136   -3.34286153451841
H        -2.27873939122778    1.11681998099108   -2.99618374388449
H        -1.87323000859517    2.19519346129544   -1.66377448920271
C         0.86244300309116    2.34868419040714   -2.04914947910529
O         0.91871275364585    1.86700304293665   -0.69885969663947
C         2.27306724813633    2.19822500135330   -2.63153267163815
H         2.58904208495422    1.16303743053955   -2.52897486867989
H         2.30954395254055    2.51037574532718   -3.67126282381753
H         2.95828364347146    2.81371479891092   -2.05337811180373
C         0.46036035201989    3.82231636937173   -2.06037257088956
H        -0.45393828199158    3.98722772062028   -1.49886570763253
H         1.25078185603885    4.40993631764575   -1.59946919632813
H         0.32388356114650    4.16209299545319   -3.08385291324187
B         1.58734108466011    0.64529409645601    1.84905921394830
O         2.96048544473547    0.73255191684359    1.89552879831355
C         3.35506789088852    2.02644877843871    2.37246112505509
C         4.57627460278170    1.89499511192605    3.28138410759018
H         4.40033135575631    1.17446391641021    4.07332191794247
H         5.42309940215680    1.55053348462557    2.69306095221614
H         4.82277835529416    2.86012746731424    3.71577692851796
C         3.72361089651139    2.85209330938075    1.13421393764890
H         4.02337996829985    3.86136447070518    1.40039807123473
H         4.54822645920370    2.36117675603830    0.62220276496332
H         2.87319871849993    2.86883652094686    0.45763166036719
C         2.05606330822191    2.54366858232006    3.08025002117552
O         1.03299917256422    1.72212283974917    2.50276912395631
C         1.72544733547139    4.01221344469132    2.81943220364082
H         1.52966007524768    4.17587201902217    1.76501467698556
H         0.83174760049622    4.28069065470680    3.37729818846901
H         2.54570465107494    4.64625690109795    3.14476054474318
C         2.04870801674955    2.28385772936345    4.59242528209302
H         2.22831155386315    1.23060369933246    4.79125686539546
H         2.79555133938545    2.88968482609036    5.09645621849905
H         1.06673534199090    2.53562155158998    4.98630723378427
B         2.27819999999477   -1.33090000000179    0.17410000000271
O         3.06390280610527   -2.34873059085976    0.67873526670407
C         4.36298181620774   -2.32423473826329    0.07575028573336
C         5.29977579543605   -1.65604635399321    1.08835632173053
H         4.89945220005353   -0.67957422033648    1.34635990944090
H         5.31573600355914   -2.26047595850543    1.99198565226447
H         6.31059372560623   -1.56880320245497    0.70211871954079
C         4.83363083282117   -3.75517043207857   -0.18339167788855
H         4.94325803048256   -4.26503274239327    0.77016528020467
H         5.79407596093582   -3.74647040011178   -0.69109401598299
H         4.11381113127037   -4.30708809347798   -0.77853039405145
C         4.12963162502864   -1.45689140730870   -1.21018194496362
O         2.90531514758059   -0.76754177187352   -0.91399360571081
C         5.22827807950388   -0.43565504074071   -1.49944074844727
H         6.18558047096412   -0.93590959523167   -1.61706358221404
H         4.99323053875589    0.09339357342333   -2.41963861958791
H         5.28900466623557    0.29113037657139   -0.69696086468521
C         3.88142359178604   -2.29705891931130   -2.47046142166946
H         3.07330553693031   -3.00252189339207   -2.29750618863720
H         3.57899757341194   -1.63273906428039   -3.27669360010518
H         4.77956518516952   -2.82902896212331   -2.76920028404509
H        -3.22028769972710   -3.44949890408592   -3.13679404742584
H        -4.98347131441566    1.88864354730711    0.89848983954598
C         0.23590000003049   -1.68140000002175    2.96029999999673
C        -0.94054186554849   -2.09277964144299    3.50141640747773
C         1.23387368384633   -1.46205382287691    3.95877371660826
S        -0.86429081838411   -2.12490966098283    5.25692330175234
C        -2.21515433647908   -2.51955485065333    2.85924882553434
C         0.78981703056411   -1.64106983869948    5.22329499627337
H         2.24434436478872   -1.19139237057608    3.71087836292379
H        -2.62573886587485   -3.38761113332169    3.37362797434393
H        -2.03741336427475   -2.77575073257971    1.81820653253901
H        -2.96143751852772   -1.72411523255864    2.90176462382509
H         1.31746144097802   -1.53079476644629    6.15083804671366
