97
 energy: -137.718776300338 gnorm: 0.074727433491 xtb: 6.4.1 (1a32961)
N        -0.96510000000000   -2.11530000000000   -0.24090000000000
C        -2.24700000000000   -1.69840000000000   -0.36220000000000
C        -3.14040000000000   -2.36820000000000   -1.21200000000000
C        -2.70220000000000   -3.47560000000000   -1.93050000000000
C        -1.37780000000000   -3.89880000000000   -1.78760000000000
C        -0.54290000000000   -3.18670000000000   -0.93510000000000
H         0.49810000000000   -3.45630000000000   -0.78940000000000
H        -0.99570000000000   -4.76030000000000   -2.32770000000000
H        -4.16500000000000   -2.02890000000000   -1.31830000000000
C        -2.62130000000000   -0.50950000000000    0.44100000000000
N        -1.62600000000000    0.07330000000000    1.16020000000000
C        -1.89680000000000    1.15240000000000    1.91690000000000
C        -3.17230000000000    1.70330000000000    1.99650000000000
C        -4.20510000000000    1.11740000000000    1.26270000000000
C        -3.92610000000000    0.00250000000000    0.47820000000000
H        -4.71960000000000   -0.46420000000000   -0.09520000000000
H        -3.34630000000000    2.57510000000000    2.62070000000000
H        -1.04450000000000    1.57420000000000    2.43690000000000
Ir        0.42150000000000   -0.81650000000000    0.91330000000000
H         0.87260000000000   -2.23030000000000    1.54050000000000
B         0.50670000000000    0.41560000000000   -0.81540000000000
O         0.19500000000000   -0.04700000000000   -2.09150000000000
C         0.00650000000000    1.10040000000000   -2.95430000000000
C         0.49020000000000    0.74740000000000   -4.35780000000000
H         1.51610000000000    0.37380000000000   -4.33700000000000
H         0.44730000000000    1.62240000000000   -5.01670000000000
H        -0.14740000000000   -0.03390000000000   -4.78430000000000
C        -1.50120000000000    1.39560000000000   -2.96670000000000
H        -1.75370000000000    2.21460000000000   -3.64850000000000
H        -2.03200000000000    0.49450000000000   -3.28930000000000
H        -1.85170000000000    1.65210000000000   -1.96220000000000
C         0.84230000000000    2.20670000000000   -2.22040000000000
O         0.75200000000000    1.78260000000000   -0.83690000000000
C         2.32930000000000    2.18620000000000   -2.59900000000000
H         2.74130000000000    1.18500000000000   -2.45750000000000
H         2.48870000000000    2.51300000000000   -3.63180000000000
H         2.87200000000000    2.86270000000000   -1.93200000000000
C         0.28440000000000    3.62290000000000   -2.33660000000000
H        -0.72650000000000    3.69040000000000   -1.92910000000000
H         0.92130000000000    4.31480000000000   -1.77610000000000
H         0.26430000000000    3.94810000000000   -3.38320000000000
B         1.56300000000000    0.60960000000000    1.84840000000000
O         2.92780000000000    0.55230000000000    2.15020000000000
C         3.36330000000000    1.88660000000000    2.50260000000000
C         4.53140000000000    1.78590000000000    3.47740000000000
H         4.27910000000000    1.16090000000000    4.33690000000000
H         5.39390000000000    1.33790000000000    2.97340000000000
H         4.82390000000000    2.77870000000000    3.83820000000000
C         3.79700000000000    2.56850000000000    1.19670000000000
H         4.20020000000000    3.57090000000000    1.37680000000000
H         4.56740000000000    1.95560000000000    0.72110000000000
H         2.95240000000000    2.63260000000000    0.50540000000000
C         2.05040000000000    2.50090000000000    3.09320000000000
O         1.03750000000000    1.81620000000000    2.31910000000000
C         1.89100000000000    4.00450000000000    2.88650000000000
H         1.87290000000000    4.25440000000000    1.82410000000000
H         0.94940000000000    4.34260000000000    3.33170000000000
H         2.71080000000000    4.55150000000000    3.36630000000000
C         1.82470000000000    2.13200000000000    4.56520000000000
H         1.92610000000000    1.05330000000000    4.71320000000000
H         2.52610000000000    2.65280000000000    5.22540000000000
H         0.80630000000000    2.41580000000000    4.84900000000000
B         2.27820000000000   -1.33090000000000    0.17410000000000
O         2.89460000000000   -2.57740000000000    0.38450000000000
C         4.26930000000000   -2.48200000000000   -0.07210000000000
C         5.10900000000000   -2.05380000000000    1.14010000000000
H         4.76350000000000   -1.08740000000000    1.51750000000000
H         4.98050000000000   -2.79470000000000    1.93590000000000
H         6.17420000000000   -1.99290000000000    0.89300000000000
C         4.71950000000000   -3.84660000000000   -0.58470000000000
H         4.75280000000000   -4.56130000000000    0.24420000000000
H         5.72330000000000   -3.78370000000000   -1.02010000000000
H         4.03500000000000   -4.23600000000000   -1.34170000000000
C         4.16440000000000   -1.36220000000000   -1.16300000000000
O         3.08520000000000   -0.55030000000000   -0.65400000000000
C         5.40720000000000   -0.48870000000000   -1.31550000000000
H         6.27320000000000   -1.09010000000000   -1.61530000000000
H         5.23300000000000    0.26930000000000   -2.08590000000000
H         5.64270000000000    0.02650000000000   -0.38240000000000
C         3.71800000000000   -1.89830000000000   -2.53110000000000
H         2.82530000000000   -2.52160000000000   -2.42740000000000
H         3.46090000000000   -1.05250000000000   -3.17550000000000
H         4.50570000000000   -2.48290000000000   -3.01790000000000
H        -3.38500000000000   -4.00130000000000   -2.59310000000000
H        -5.21400000000000    1.52080000000000    1.29960000000000
C         0.23590000000000   -1.68140000000000    2.96030000000000
C        -0.97728455892264   -2.11190224925949    3.55331997415184
C         1.20745439037038   -1.90094243940704    3.91416601840550
C        -0.69870040552536   -2.52148171130228    4.83303691912010
H        -1.95452204787467   -2.11158787128947    3.09983629583936
N         0.63955553486059   -2.38818191492705    5.05224097492951
H         2.26758500986833   -1.73468080227612    3.84133592212403
H        -1.35220471883235   -2.90391549468862    5.59820088514046
C         1.35322301777648   -2.86424587154497    6.20876936449116
H         2.34234744969870   -2.40649949833121    6.23397220659098
H         1.47295345101812   -3.95057583965875    6.16360462485503
H         0.81252344802598   -2.60849475786057    7.12088149272094
97
 energy: -137.725072476701 gnorm: 0.048449688311 xtb: 6.4.1 (1a32961)
N        -0.96032268538447   -2.09912967626170   -0.24946749923695
C        -2.23987548082019   -1.68991757499344   -0.36377819465033
C        -3.13412505762255   -2.36175219333680   -1.20664904408647
C        -2.70393375485833   -3.46286685739252   -1.92198407413102
C        -1.38304898618826   -3.88125688898796   -1.78211373495018
C        -0.55352533554850   -3.16724422909022   -0.94003581558193
H         0.48023207746456   -3.44759398995346   -0.79095921447187
H        -1.00668534563004   -4.74149443981994   -2.31741160500302
H        -4.15487972678671   -2.02650847103145   -1.31082001436754
C        -2.61134534466210   -0.51481466707178    0.43542831765244
N        -1.61764609366370    0.06398261211559    1.14736692405040
C        -1.89648711109995    1.13564570655474    1.89412282302565
C        -3.16280768950193    1.68582997585435    1.98190755185363
C        -4.19533105641804    1.10243482156747    1.25504461827336
C        -3.91441039988356   -0.00384223874498    0.47513879334363
H        -4.70620124281992   -0.46697823957100   -0.09377712913864
H        -3.33767530445013    2.54935706525475    2.60856404542288
H        -1.05358766702975    1.55298933335361    2.42394040854716
Ir        0.42150000000000   -0.81650000000000    0.91330000000000
H         0.87260000000000   -2.23030000000000    1.54050000000000
B         0.49398560809089    0.42346515980560   -0.79020830205873
O         0.17669877233226   -0.03455863987334   -2.06342620649818
C         0.01109388725299    1.09699092809724   -2.94338724096239
C         0.48988121779984    0.74778478663772   -4.34855550046333
H         1.50887579512416    0.37090538425099   -4.32727165446111
H         0.44498944260786    1.62333613432164   -4.99708332608162
H        -0.14891615629099   -0.02834506051957   -4.76884845952515
C        -1.49310507046710    1.39944780168825   -2.96996794806682
H        -1.73187618370555    2.21251599679101   -3.65410970837408
H        -2.02328796026892    0.50221696944389   -3.28962768928875
H        -1.83999905882708    1.65394514484158   -1.96827423115603
C         0.83217125558833    2.20716207444707   -2.21250065522935
O         0.75627548473473    1.78068780954523   -0.83578334760587
C         2.31467036338290    2.19134817117267   -2.60029041037251
H         2.71891165174803    1.19220399455472   -2.45007283120900
H         2.46642057413158    2.51254909553859   -3.63022646262629
H         2.85693352212187    2.86604100889825   -1.93870134441335
C         0.28060248300839    3.62325844880500   -2.33980967689222
H        -0.72269506922189    3.69204957153364   -1.92733963931626
H         0.92016393699903    4.30699666922072   -1.78298844182594
H         0.26275706267196    3.93577958382196   -3.38414275049982
B         1.56227001872992    0.60613904785244    1.87353024556536
O         2.92619216227822    0.56142973837852    2.14502775263330
C         3.36304938664007    1.88498857430708    2.51116594217186
C         4.53397728522314    1.79019702980043    3.48092237402291
H         4.28203123486417    1.16276255638891    4.33157903566505
H         5.38868807102493    1.34551446872044    2.97292403535998
H         4.81626542462856    2.78103855617051    3.83587281036791
C         3.79846829198771    2.57238863900018    1.21232758321969
H         4.19943081854003    3.56871312611292    1.39518773545387
H         4.56253055866845    1.96129400531342    0.73479908264417
H         2.95011251845549    2.62414023455268    0.53126562092553
C         2.05344174298002    2.50449973594063    3.09072211733453
O         1.04173389922254    1.80655985001605    2.33944162089556
C         1.89437362751904    4.00671532112852    2.88954367852846
H         1.86865285079552    4.24982775805670    1.83114883888050
H         0.95663050178443    4.33581704247773    3.33563825453122
H         2.71472380083363    4.54381546840275    3.36530384742891
C         1.83251489016671    2.14115656079169    4.56290038250744
H         1.93433488823035    1.06508378135996    4.69665812582706
H         2.53375461426917    2.66261455149973    5.21222005289725
H         0.81745917086665    2.41856080995445    4.84616796536483
B         2.27820000000000   -1.33090000000000    0.17410000000000
O         2.90228343785949   -2.56239954222794    0.38906323544149
C         4.26643376283469   -2.48346256447062   -0.07846789775332
C         5.11056330748433   -2.05871800884033    1.12756441456846
H         4.75234966957476   -1.09934056415196    1.49868737304297
H         4.97887093763714   -2.79501656330100    1.91950066570842
H         6.16843712609727   -1.99787895213932    0.87591095588805
C         4.72147453580777   -3.84555969621405   -0.58835011613995
H         4.75063120123581   -4.54992831713228    0.24168516440714
H         5.71923033947205   -3.77412580471132   -1.02073993320308
H         4.03545929296106   -4.23282934232027   -1.33687238291672
C         4.16722134910621   -1.36014519619046   -1.15794441985892
O         3.07561729699512   -0.56355124181294   -0.66200420115067
C         5.41058441768131   -0.49199157734272   -1.31572906664097
H         6.26689624484503   -1.09770600998517   -1.61150579257145
H         5.23200408744595    0.25923872868059   -2.08394594900112
H         5.63770974311115    0.02262475910998   -0.38655779897854
C         3.73039314828383   -1.89952026320647   -2.52613278939328
H         2.83807651998975   -2.51460478908624   -2.41719432401651
H         3.47269012115175   -1.05801517960848   -3.16797162267830
H         4.52019419840370   -2.47682359859993   -3.00421625304951
H        -3.38321534827517   -3.98810730817224   -2.57995425402789
H        -5.19939887609616    1.50407420476071    1.29571553940763
C         0.23590000000001   -1.68140000000000    2.96030000000000
C        -0.97850681787657   -2.10853855787204    3.55491181937541
C         1.20563412603161   -1.89853633101972    3.91708804556420
C        -0.70031658563324   -2.51485317032292    4.83430514483331
H        -1.95402543942586   -2.10784895743813    3.10236467802849
N         0.63622257437902   -2.38221666974810    5.05396991248840
H         2.26319092968671   -1.73285841655085    3.84564614163216
H        -1.35315825746986   -2.89421712731277    5.59829481798237
C         1.34773305967163   -2.85603654941555    6.21096097462951
H         2.33599495188418   -2.39962330570589    6.23682313729201
H         1.46744833054578   -3.94271767657793    6.16778069229856
H         0.80697508183430   -2.59918529180233    7.12186938866895
97
 energy: -137.726690809627 gnorm: 0.039920578250 xtb: 6.4.1 (1a32961)
N        -0.94978750931647   -2.08894745483210   -0.25874343436748
C        -2.22879650425306   -1.68265379150676   -0.36764545616085
C        -3.12809047759064   -2.35467554975030   -1.20475049449878
C        -2.70629659923482   -3.45274672751641   -1.92053845861444
C        -1.38498613696919   -3.87070893620625   -1.78403129843935
C        -0.55592580918816   -3.15623842475299   -0.94791053794262
H         0.47647607941065   -3.44091342635719   -0.80655335768287
H        -1.01426901478216   -4.73071890150679   -2.31732901713901
H        -4.14779665899300   -2.02066380967146   -1.30058147104545
C        -2.59689618288539   -0.51809489362256    0.42763391151296
N        -1.60520324096483    0.05534286674692    1.14146963206831
C        -1.89116434930023    1.12058634909568    1.88476827390413
C        -3.15261073986188    1.67186214078875    1.97485260583850
C        -4.18619848626082    1.08979274537974    1.24780476391882
C        -3.90108007538271   -0.00944297289275    0.46787579311981
H        -4.69036953792237   -0.47428634318679   -0.09889573659473
H        -3.32815528784758    2.53123047421021    2.60155132268619
H        -1.05371427883287    1.54206227314428    2.41671750740312
Ir        0.42150000000000   -0.81650000000000    0.91330000000000
H         0.87260000000000   -2.23030000000000    1.54050000000000
B         0.49835867435393    0.43463020804059   -0.76708270434092
O         0.15868607017884   -0.02341532210032   -2.03396298631359
C         0.00712872700888    1.09522641392466   -2.92330414270758
C         0.49053194864395    0.74126956789745   -4.32622332939552
H         1.50584508183810    0.36069117032030   -4.30616385331424
H         0.44565174869132    1.61995268931805   -4.96497392994309
H        -0.15225451544018   -0.02878571059859   -4.74509277045383
C        -1.49552597661118    1.40671485654088   -2.96937245906523
H        -1.71610418912220    2.21606279189082   -3.65912878443807
H        -2.02511287198900    0.51183705592497   -3.29001259874387
H        -1.84532137085913    1.66457549202436   -1.97179585217259
C         0.82486530011185    2.20795163248327   -2.19946657817843
O         0.76108059064642    1.78669437102670   -0.82778914750943
C         2.30475108198973    2.19753612979050   -2.59825059582445
H         2.70641175089475    1.20008227314528   -2.44098681071625
H         2.44312596416802    2.51115727192979   -3.62924847243530
H         2.84694578701728    2.87691558059018   -1.94502703992515
C         0.27031341399843    3.62244692953406   -2.33634335391853
H        -0.72885279368179    3.69691420797966   -1.92027933128921
H         0.91489621704726    4.30517998228923   -1.78919323702620
H         0.25273002303167    3.91809671645588   -3.38216027176188
B         1.56729137895244    0.61430317282230    1.87454213226202
O         2.92520030018305    0.57033838427340    2.14029040010519
C         3.36254026158760    1.88492308458152    2.51698913314387
C         4.53248051367156    1.79173610962620    3.48922822651203
H         4.28473321219646    1.16072880403525    4.33538902084784
H         5.38462157418148    1.35415795172627    2.97655868049005
H         4.80464596806567    2.78283837414193    3.84065773923377
C         3.80161049090625    2.58011461355047    1.22390926836158
H         4.19836106992476    3.57288895770559    1.41436395487826
H         4.56518025564738    1.97205861491096    0.74643523316702
H         2.95156729126843    2.62574991387130    0.54754897084827
C         2.05426252313599    2.50317344698557    3.09397881018455
O         1.04448940691482    1.79883167630238    2.35638406788442
C         1.89647166123471    4.00528156706066    2.89063612073974
H         1.86296787653948    4.24680718454328    1.83424443588148
H         0.96357518278040    4.33056154994981    3.34279010187392
H         2.72043791317199    4.53389920738763    3.36157205120340
C         1.84426218566237    2.14783828078509    4.57056139997028
H         1.94870078653017    1.07318342157184    4.69625057779364
H         2.54770414137046    2.67284205158009    5.20905599346782
H         0.83114588308301    2.42175500561055    4.85489471137377
B         2.27819999999999   -1.33089999999999    0.17410000000000
O         2.90560563090425   -2.55108383867548    0.39633671314637
C         4.26016418369187   -2.48172233067374   -0.07976911034225
C         5.11472473772693   -2.06085123110709    1.11997637857643
H         4.74994220197784   -1.10531423196885    1.48885130124075
H         4.98462630487027   -2.79677557189964    1.90885832607972
H         6.16684366375874   -1.99945342194449    0.85945877404268
C         4.71492085232171   -3.84323706542430   -0.59300182496849
H         4.74657985847679   -4.54132273356623    0.23837062863330
H         5.70859595377525   -3.76243622621644   -1.02440416478674
H         4.02883472358453   -4.23210607644403   -1.33709746282859
C         4.16377885852464   -1.35993818712087   -1.15669591321789
O         3.06541784443874   -0.57291466132694   -0.67040251456323
C         5.40877440146887   -0.49345449303850   -1.31029295994633
H         6.25746512639235   -1.10633819988863   -1.60049222860519
H         5.23166746503824    0.25115161678504   -2.08138161866403
H         5.63226646022759    0.02345650230990   -0.38423645370769
C         3.74177804861875   -1.90269727944789   -2.52893358400261
H         2.85042936674571   -2.51502470790972   -2.41920655153211
H         3.48770402312332   -1.06302676013435   -3.17123700931055
H         4.53777907186476   -2.47569261418901   -2.99424862467179
H        -3.38697475920507   -3.97872603712388   -2.57206707296794
H        -5.18885202110836    1.48753904068007    1.29220429276448
C         0.23590000000003   -1.68140000000000    2.96030000000000
C        -0.98094025627362   -2.10238638310703    3.55561225880536
C         1.20316469575006   -1.89509573595416    3.92069410881494
C        -0.70497469479810   -2.50212186950774    4.83708184488193
H        -1.95519920517695   -2.10122841960223    3.10247541719398
N         0.63041427203911   -2.37126823333002    5.05782652999851
H         2.25981200424912   -1.73119903682029    3.85054674886838
H        -1.35923119342159   -2.87598240283967    5.60119530408142
C         1.33855739768382   -2.84068543961986    6.21741487995506
H         2.32688644684645   -2.38586556417207    6.24397760980107
H         1.45734372652031   -3.92794956147430    6.17850404300681
H         0.79632351504343   -2.58060083844231    7.12620297154357
97
 energy: -137.727286669207 gnorm: 0.039731214863 xtb: 6.4.1 (1a32961)
N        -0.93861696184642   -2.08605685190386   -0.26807421872995
C        -2.21875907111852   -1.67992035926090   -0.37224614286995
C        -3.12268071574321   -2.35192993294437   -1.20586274578226
C        -2.70653869302590   -3.44984929171130   -1.92327186864180
C        -1.38296852550930   -3.86734934905134   -1.79276773675419
C        -0.55041202398979   -3.15213979686516   -0.96095629159927
H         0.48231908605060   -3.44004511217713   -0.82575888179785
H        -1.01619491940288   -4.72811581181670   -2.32643435529035
H        -4.14239643840907   -2.01631037191399   -1.29499810408986
C        -2.58515091353329   -0.51986403792250    0.42320399916470
N        -1.59406773235352    0.05247614749460    1.13983846608627
C        -1.88368663498751    1.11631597463577    1.88273159593694
C        -3.14512703871778    1.66610065505279    1.97388730994649
C        -4.17933375436269    1.08327090421388    1.24526443022191
C        -3.89077527718532   -0.01241118257308    0.46342303764122
H        -4.67738265892139   -0.47810707443876   -0.10612083462756
H        -3.32221581237504    2.52284217371758    2.60251615675052
H        -1.04969816279571    1.53861661332303    2.42006579704096
Ir        0.42150000000000   -0.81650000000000    0.91330000000000
H         0.87260000000000   -2.23030000000000    1.54050000000000
B         0.48616283413659    0.44935935669099   -0.74816554312722
O         0.13846305082342   -0.01382926044576   -2.01108443890041
C        -0.00105489006560    1.09660375171086   -2.90626215555348
C         0.48936424332575    0.73318845227139   -4.30523430251354
H         1.50224790949943    0.34693711017047   -4.27949817748236
H         0.45126305433737    1.61192946460951   -4.94361608780815
H        -0.15654214849873   -0.03390860280752   -4.72423425339201
C        -1.50267429965538    1.41595534547235   -2.96812052031844
H        -1.70897070456062    2.22330564765923   -3.66395249182629
H        -2.03294978758364    0.52240701144526   -3.29059371118022
H        -1.86056532788094    1.67990672408496   -1.97517630918994
C         0.81745666850948    2.21179657887759   -2.18665017075529
O         0.76226599912811    1.79695904606535   -0.81629976975373
C         2.29588173964554    2.20346747820047   -2.59471357069486
H         2.70001659723061    1.20801057507941   -2.43168874569058
H         2.42486532608308    2.50944012465860   -3.62876301336176
H         2.83918001628230    2.88997535864703   -1.95015486344818
C         0.26091767962926    3.62582264781504   -2.33075900604438
H        -0.73607659378732    3.70375103817635   -1.91056506573237
H         0.90896632481750    4.31296018510082   -1.79349619361532
H         0.23854040838495    3.90924239293553   -3.37955521848647
B         1.56711850306665    0.60963676924215    1.89302887194270
O         2.92722928860589    0.57263034451004    2.13784530047194
C         3.36263330197834    1.88362745388902    2.52158703669398
C         4.53318730034072    1.79132083613453    3.49488679611230
H         4.28881698480904    1.15607902687704    4.33858818806097
H         5.38753957286994    1.36088983236549    2.98017340861189
H         4.79773103565817    2.78324123068769    3.84888542562636
C         3.80371971161350    2.58781609409660    1.23305100436599
H         4.19634362665086    3.58028113686098    1.43077556957246
H         4.57067090425922    1.98447804977765    0.75524272481261
H         2.95452658492656    2.63303934120243    0.55598722973116
C         2.05539721985291    2.50134577076838    3.10135948894874
O         1.04491956977434    1.79089421397520    2.37511083867952
C         1.89605893280896    4.00354813800445    2.89309192628254
H         1.85444094661713    4.24228074236136    1.83636509532181
H         0.96723106544002    4.33024891269970    3.35220518924748
H         2.72487506456259    4.53068651000494    3.35635542197653
C         1.85505613638856    2.15380864652121    4.58230955521390
H         1.96311755712826    1.08007879325982    4.71001505985275
H         2.56218494687837    2.68389914126774    5.21156899018848
H         0.84317934470161    2.42674242396661    4.87090979769938
B         2.27819999999999   -1.33089999999999    0.17410000000000
O         2.90766222599207   -2.54541861275742    0.40402469673160
C         4.25616821297303   -2.48074207658919   -0.07996371316097
C         5.12000872772756   -2.06190228599851    1.11511524275476
H         4.75541198512436   -1.10756595455424    1.48672318675303
H         4.99472828475622   -2.79951028367169    1.90286751392573
H         6.16939824381343   -1.99959316530437    0.84647180565067
C         4.70790410084100   -3.84354853704708   -0.59553978159459
H         4.74364506135416   -4.54049477966603    0.23630894706046
H         5.69929141451119   -3.75926364047597   -1.03050037141683
H         4.01927949754593   -4.23301481916027   -1.33676129698691
C         4.16038516964040   -1.35964429314696   -1.15757678389357
O         3.05722119967842   -0.57731536294062   -0.67930627513445
C         5.40596431145949   -0.49184184887958   -1.30586153642483
H         6.25401398035852   -1.10853107173802   -1.58877015570833
H         5.23330200504437    0.24917563217397   -2.08114507027843
H         5.62484554609800    0.02804834751728   -0.38058137293241
C         3.75134714753639   -1.90545722672663   -2.53367209454421
H         2.86058542014531   -2.51909877666251   -2.42973165346167
H         3.50259477714219   -1.06693033766463   -3.17932472255861
H         4.55384712487382   -2.47702070248026   -2.98844743874233
H        -3.39041849715161   -3.97587441723647   -2.57093305975259
H        -5.18264341634052    1.47816040974896    1.29113634439871
C         0.23590000000004   -1.68140000000000    2.96030000000000
C        -0.98368967193543   -2.09495090703905    3.55545300950080
C         1.20038536353995   -1.89151684428856    3.92419885793663
C        -0.71155777538741   -2.48651930639105    4.84042469013013
H        -1.95700755847404   -2.09359113634659    3.10040900692449
N         0.62338905921539   -2.35804739187815    5.06299571393816
H         2.25747730373485   -1.73040824098846    3.85527554847913
H        -1.36874144690078   -2.85327205542453    5.60554538729131
C         1.32755883092208   -2.82187168562182    6.22691705369998
H         2.31638439468270   -2.36824243050171    6.25401375908448
H         1.44516568382700   -3.90964343844280    6.19405360939277
H         0.78298385951651   -2.55661184257505    7.13286050546644
97
 energy: -137.727991562920 gnorm: 0.039909653967 xtb: 6.4.1 (1a32961)
N        -0.92138834434547   -2.08383345206959   -0.28372313563868
C        -2.20375637169115   -1.67783143290230   -0.38053323484016
C        -3.11321881149717   -2.35050895743212   -1.20979863691147
C        -2.70349583075624   -3.44831844017030   -1.93012469615046
C        -1.37666840033805   -3.86437516027519   -1.80931033715374
C        -0.53835530922313   -3.14809018900450   -0.98319535268152
H         0.49619800433388   -3.43738410558729   -0.85898383805904
H        -1.01416602044543   -4.72516482260191   -2.34607746797971
H        -4.13342731398331   -2.01284109286926   -1.28966452991006
C        -2.56859912815933   -0.52204199410869    0.41753743228098
N        -1.57852787463378    0.04769863031940    1.14111181407496
C        -1.87213371880519    1.11052817189719    1.88585946893644
C        -3.13415256954257    1.65884830459248    1.97623277070111
C        -4.16820127163607    1.07667676989767    1.24315978663836
C        -3.87532922128803   -0.01404654443052    0.45697129846196
H        -4.65823109498216   -0.47957755823126   -0.11838528437808
H        -3.31334252493155    2.51276959312436    2.60795748831582
H        -1.04164294610135    1.53442850317577    2.42863377509673
Ir        0.42150000000000   -0.81650000000000    0.91330000000000
H         0.87260000000000   -2.23030000000000    1.54050000000000
B         0.48413730886329    0.47004092541627   -0.72235036982858
O         0.10745519846211    0.00262513850547   -1.97633563793008
C        -0.01702634386790    1.10189212248264   -2.87947511759389
C         0.48378489090103    0.71941052095642   -4.27120189579681
H         1.49210799764687    0.32115782168919   -4.23089189155338
H         0.46214722816866    1.59399728577447   -4.91667994340637
H        -0.16702561678619   -0.04440482678564   -4.68945011028915
C        -1.51658154518094    1.43389339314067   -2.96457476636393
H        -1.70355061955846    2.23783081969504   -3.67019135023657
H        -2.04927320466754    0.54232763939884   -3.28919396495706
H        -1.88911227151031    1.70921756022365   -1.97960835908809
C         0.80602516642884    2.22155207186161   -2.16785803908513
O         0.76545470515362    1.81437539500822   -0.79823568464228
C         2.28227914152198    2.21632055194260   -2.58903653498158
H         2.69307586936323    1.22492432839141   -2.41575324463767
H         2.39863181294025    2.50858304441868   -3.62870341973136
H         2.82717346967233    2.91571711268956   -1.95905823831211
C         0.24421453095449    3.63408200532455   -2.32044193198101
H        -0.74880490028122    3.71547100579629   -1.89060672831692
H         0.89723689517800    4.33046646190426   -1.80013327142620
H         0.20925319142044    3.90212559623017   -3.37344378616251
B         1.57009187985388    0.61218871350940    1.89858300730204
O         2.93075590884907    0.57813586594101    2.13066055874694
C         3.36484151933690    1.88369351633677    2.52856443386828
C         4.53538935408880    1.78845394577887    3.50391480428985
H         4.29536128455281    1.14389950734780    4.34231667137797
H         5.39509853737373    1.37043439830538    2.98683072916049
H         4.79012710644035    2.78011870226216    3.86744680042827
C         3.80967614789600    2.60172226775820    1.24743595826253
H         4.19489950685532    3.59482346336277    1.45756523382741
H         4.58404792526075    2.00738634849130    0.76940839108197
H         2.96403640842278    2.64872845628554    0.56583532487442
C         2.05772221491094    2.49783896881081    3.11554431475469
O         1.04443780390661    1.78036105295225    2.40384698774884