98
 energy: -156.606935186666 gnorm: 0.000319746792 xtb: 6.4.1 (1a32961)
N        -0.89123834307784   -2.12895257321908   -0.34241150482399
C        -2.15704611324282   -1.72010233719987   -0.52630931105672
C        -3.00736069109318   -2.39390909662602   -1.41036710309859
C        -2.54229990628038   -3.49121417933449   -2.10511688981693
C        -1.22810635138125   -3.89821637469576   -1.90620382724378
C        -0.44769302144100   -3.18331317428009   -1.01784157609536
H         0.57969153358558   -3.45879464243767   -0.82754834795145
H        -0.82349721229939   -4.75083005307822   -2.42642957997073
H        -4.02322112874003   -2.06740506451420   -1.55636743896171
C        -2.58471078097408   -0.54640331946643    0.23688838572614
N        -1.67061250895645    0.00998498082428    1.05437103798859
C        -2.01371970965962    1.07589342151833    1.76948438294159
C        -3.27109632006861    1.64811075350580    1.72709341129570
C        -4.22440061838550    1.09017548448992    0.88400178880589
C        -3.87324764828845   -0.01162796970961    0.13068270919538
H        -4.59904236081278   -0.45028054975395   -0.53281881943818
H        -3.49854339791536    2.50520323975946    2.33933697956374
H        -1.23285261895034    1.48428650253909    2.39160816198167
Ir        0.42149999999997   -0.81650000000009    0.91330000000002
H         0.87259999999996   -2.23029999999995    1.54049999999989
B         0.38728742532440    0.49969954850577   -0.69493124916406
O        -0.05018513586185    0.06802256060553   -1.93337885547896
C        -0.31581439110326    1.19525365000583   -2.77883539435462
C         0.15238019552494    0.89040057948567   -4.19950052820828
H         1.18677470027539    0.56347657760381   -4.20458838424045
H         0.04379177898373    1.77165830588676   -4.82604388089976
H        -0.45890456882542    0.09062102399500   -4.61039876600029
C        -1.83728781221598    1.40118486993516   -2.78339227592320
H        -2.12055580774013    2.21243779880007   -3.44697132448135
H        -2.31071996740019    0.48218480184374   -3.12271528238069
H        -2.19076968880162    1.61075840137329   -1.77611881396391
C         0.45087448627491    2.35429836209913   -2.05732973123639
O         0.57728189727983    1.85803389138872   -0.71554396311820
C         1.87130327903823    2.54799025258818   -2.60078820682232
H         2.41915617716786    1.61360131440007   -2.51037463359793
H         1.85647690353186    2.88215079291999   -3.63385448466460
H         2.38205259746713    3.29412033246082   -1.99707638619196
C        -0.27458603322855    3.69847830741265   -2.04225287936076
H        -1.21334430478555    3.63434367111795   -1.50141083166271
H         0.35167932690279    4.43361423311643   -1.54299548057652
H        -0.46273322643865    4.03189207814351   -3.05931414472950
B         1.48069853022867    0.71338252183281    1.87814806237091
O         2.83255575702808    0.89528966147238    1.97035414880111
C         3.11680923114274    2.25443720707659    2.33173131860720
C         4.32585410111228    2.30964922609618    3.26263200537542
H         4.18602483066152    1.67627306580216    4.13145066632343
H         5.19828514045415    1.95270916491000    2.72212854477151
H         4.50285628431894    3.33293890370634    3.58240832500542
C         3.45084071911403    2.97553405000455    1.02108706465367
H         3.69859079510290    4.01929487753569    1.18964428616157
H         4.29882639452102    2.47173780442745    0.56473644016137
H         2.60685605570800    2.88115640236868    0.34428283411696
C         1.76417067058188    2.73693549839686    2.96234522867606
O         0.82391955525830    1.76978306405075    2.46902942744160
C         1.31215678225212    4.12782128056012    2.51910280038157
H         1.11017375261350    4.13550434958294    1.45342412776735
H         0.39560981009613    4.38805396890634    3.04266283045906
H         2.07342534283427    4.86496687153472    2.75751762539589
C         1.74464062557271    2.66692976237485    4.49385636800365
H         2.04490071030972    1.68053014057260    4.83325738419563
H         2.40592490545256    3.41452041251740    4.92083964548873
H         0.73077770374014    2.85146572255116    4.84183261279050
B         2.27819999999986   -1.33090000000082    0.17409999999909
O         2.64024806424972   -2.65869789060623    0.05028921687194
C         3.90447993846513   -2.78241021053407   -0.61652103866769
C         4.94222779278920   -3.17409840058510    0.44063777751305
H         4.97432037527531   -2.42224045489377    1.22247463719686
H         4.63810924304209   -4.11425808708658    0.89395710587284
H         5.92525099684791   -3.29573377756792   -0.00310732235532
C         3.80606298667626   -3.90207483275076   -1.65412729236845
H         3.61350703990554   -4.83899239818808   -1.13758145014121
H         4.74027508539184   -3.99005055017858   -2.20089059440105
H         2.99295301927425   -3.72233274330062   -2.34951139988311
C         4.12826811832460   -1.34383541776338   -1.20754754089241
O         3.17346273041916   -0.54347554953505   -0.49420111049084
C         5.52722991685643   -0.76898321152000   -0.99266752686691
H         6.27256566207042   -1.39728462895881   -1.47206764409521
H         5.56828523138912    0.22494868992510   -1.43034542302160
H         5.74559934539262   -0.68002998724685    0.06558408958759
C         3.76673356614673   -1.24096169501294   -2.69629498468824
H         2.72514975504925   -1.51613118019945   -2.84255286545392
H         3.89154449683370   -0.20816498382009   -3.01276429884518
H         4.40994901303484   -1.87083269301420   -3.30261933494143
H        -3.18920350881964   -4.01975649869065   -2.78842779375619
H        -5.21786151744335    1.50661457622005    0.81651068954232
C         0.23590000000246   -1.68139999999943    2.96030000000184
C        -1.11511911754602   -1.95692434859180    3.24367064594193
C         1.05837783465931   -1.69274266315446    4.09635563569204
N        -1.64582140133123   -2.04470595916690    4.44670460832184
H        -1.82363350785549   -2.12942807249648    2.44651736240801
C         2.55964282532259   -1.66154458366331    4.06340346925300
C         0.52228225180989   -1.78802059774863    5.38088794885803
C        -0.85028173400578   -1.91626969756864    5.49058210396449
F         3.13122481969720   -1.82886630039522    2.87610035463434
F         3.06758132701510   -0.52971643570655    4.59159961076721
F         3.07332749135487   -2.65214934341041    4.84346980557201
H         1.15465609189668   -1.78137746625176    6.25440820831978
Cl       -1.59855352734457   -1.97529437385298    7.04220494099124
