97
 energy: -144.989126671855 gnorm: 0.077367477482 xtb: 6.4.1 (1a32961)
N        -0.96510000000000   -2.11530000000000   -0.24090000000000
C        -2.24700000000000   -1.69840000000000   -0.36220000000000
C        -3.14040000000000   -2.36820000000000   -1.21200000000000
C        -2.70220000000000   -3.47560000000000   -1.93050000000000
C        -1.37780000000000   -3.89880000000000   -1.78760000000000
C        -0.54290000000000   -3.18670000000000   -0.93510000000000
H         0.49810000000000   -3.45630000000000   -0.78940000000000
H        -0.99570000000000   -4.76030000000000   -2.32770000000000
H        -4.16500000000000   -2.02890000000000   -1.31830000000000
C        -2.62130000000000   -0.50950000000000    0.44100000000000
N        -1.62600000000000    0.07330000000000    1.16020000000000
C        -1.89680000000000    1.15240000000000    1.91690000000000
C        -3.17230000000000    1.70330000000000    1.99650000000000
C        -4.20510000000000    1.11740000000000    1.26270000000000
C        -3.92610000000000    0.00250000000000    0.47820000000000
H        -4.71960000000000   -0.46420000000000   -0.09520000000000
H        -3.34630000000000    2.57510000000000    2.62070000000000
H        -1.04450000000000    1.57420000000000    2.43690000000000
Ir        0.42150000000000   -0.81650000000000    0.91330000000000
H         0.87260000000000   -2.23030000000000    1.54050000000000
B         0.50670000000000    0.41560000000000   -0.81540000000000
O         0.19500000000000   -0.04700000000000   -2.09150000000000
C         0.00650000000000    1.10040000000000   -2.95430000000000
C         0.49020000000000    0.74740000000000   -4.35780000000000
H         1.51610000000000    0.37380000000000   -4.33700000000000
H         0.44730000000000    1.62240000000000   -5.01670000000000
H        -0.14740000000000   -0.03390000000000   -4.78430000000000
C        -1.50120000000000    1.39560000000000   -2.96670000000000
H        -1.75370000000000    2.21460000000000   -3.64850000000000
H        -2.03200000000000    0.49450000000000   -3.28930000000000
H        -1.85170000000000    1.65210000000000   -1.96220000000000
C         0.84230000000000    2.20670000000000   -2.22040000000000
O         0.75200000000000    1.78260000000000   -0.83690000000000
C         2.32930000000000    2.18620000000000   -2.59900000000000
H         2.74130000000000    1.18500000000000   -2.45750000000000
H         2.48870000000000    2.51300000000000   -3.63180000000000
H         2.87200000000000    2.86270000000000   -1.93200000000000
C         0.28440000000000    3.62290000000000   -2.33660000000000
H        -0.72650000000000    3.69040000000000   -1.92910000000000
H         0.92130000000000    4.31480000000000   -1.77610000000000
H         0.26430000000000    3.94810000000000   -3.38320000000000
B         1.56300000000000    0.60960000000000    1.84840000000000
O         2.92780000000000    0.55230000000000    2.15020000000000
C         3.36330000000000    1.88660000000000    2.50260000000000
C         4.53140000000000    1.78590000000000    3.47740000000000
H         4.27910000000000    1.16090000000000    4.33690000000000
H         5.39390000000000    1.33790000000000    2.97340000000000
H         4.82390000000000    2.77870000000000    3.83820000000000
C         3.79700000000000    2.56850000000000    1.19670000000000
H         4.20020000000000    3.57090000000000    1.37680000000000
H         4.56740000000000    1.95560000000000    0.72110000000000
H         2.95240000000000    2.63260000000000    0.50540000000000
C         2.05040000000000    2.50090000000000    3.09320000000000
O         1.03750000000000    1.81620000000000    2.31910000000000
C         1.89100000000000    4.00450000000000    2.88650000000000
H         1.87290000000000    4.25440000000000    1.82410000000000
H         0.94940000000000    4.34260000000000    3.33170000000000
H         2.71080000000000    4.55150000000000    3.36630000000000
C         1.82470000000000    2.13200000000000    4.56520000000000
H         1.92610000000000    1.05330000000000    4.71320000000000
H         2.52610000000000    2.65280000000000    5.22540000000000
H         0.80630000000000    2.41580000000000    4.84900000000000
B         2.27820000000000   -1.33090000000000    0.17410000000000
O         2.89460000000000   -2.57740000000000    0.38450000000000
C         4.26930000000000   -2.48200000000000   -0.07210000000000
C         5.10900000000000   -2.05380000000000    1.14010000000000
H         4.76350000000000   -1.08740000000000    1.51750000000000
H         4.98050000000000   -2.79470000000000    1.93590000000000
H         6.17420000000000   -1.99290000000000    0.89300000000000
C         4.71950000000000   -3.84660000000000   -0.58470000000000
H         4.75280000000000   -4.56130000000000    0.24420000000000
H         5.72330000000000   -3.78370000000000   -1.02010000000000
H         4.03500000000000   -4.23600000000000   -1.34170000000000
C         4.16440000000000   -1.36220000000000   -1.16300000000000
O         3.08520000000000   -0.55030000000000   -0.65400000000000
C         5.40720000000000   -0.48870000000000   -1.31550000000000
H         6.27320000000000   -1.09010000000000   -1.61530000000000
H         5.23300000000000    0.26930000000000   -2.08590000000000
H         5.64270000000000    0.02650000000000   -0.38240000000000
C         3.71800000000000   -1.89830000000000   -2.53110000000000
H         2.82530000000000   -2.52160000000000   -2.42740000000000
H         3.46090000000000   -1.05250000000000   -3.17550000000000
H         4.50570000000000   -2.48290000000000   -3.01790000000000
H        -3.38500000000000   -4.00130000000000   -2.59310000000000
H        -5.21400000000000    1.52080000000000    1.29960000000000
C         0.23590000000000   -1.68140000000000    2.96030000000000
C        -0.99862941847799   -2.09990005959441    3.46291106219598
C         1.30663732101776   -1.90444061198353    3.84881839877963
C        -1.14977146447023   -2.61162255372789    4.75758116516720
H        -1.87615717279647   -2.08194188387553    2.82750585988837
C         1.17276106801468   -2.32439060130923    5.16814422526694
Cl        2.94562560804972   -1.83892732456096    3.33461825670538
C        -0.07048222751958   -2.69423342460462    5.64110971986423
C        -2.38164769862245   -3.15943149940179    5.19337562755115
H         2.06209243229533   -2.43961774539180    5.77330705903885
H        -0.18770408471388   -3.09611385116628    6.63922021835765
N        -3.34561669370509   -3.65252830698463    5.58197242955545
97
 energy: -144.997066561130 gnorm: 0.047893681608 xtb: 6.4.1 (1a32961)
N        -0.96197324455903   -2.10249918237177   -0.25070866605559
C        -2.23872746223054   -1.69092205847816   -0.36408289088244
C        -3.13379223147391   -2.36238164063010   -1.20538997871314
C        -2.70356363737848   -3.46432261492896   -1.92136676589017
C        -1.38424703885128   -3.88338109325239   -1.78298596037704
C        -0.55388989314068   -3.16940042239328   -0.94047783442051
H         0.48019553180002   -3.44900534925822   -0.79173753813356
H        -1.00779384326845   -4.74317707098031   -2.31840846138409
H        -4.15437341226244   -2.02720333875857   -1.30869701471466
C        -2.61065089728040   -0.51231988067669    0.43591422633622
N        -1.61947294609224    0.06984728909021    1.14574187441938
C        -1.89788660685864    1.13905910680071    1.89499592995440
C        -3.16568197657515    1.68676701691092    1.98504980525603
C        -4.19600125147919    1.10219327974899    1.25848268499856
C        -3.91415506078417   -0.00447527428574    0.47764055409504
H        -4.70562357634967   -0.46880062427888   -0.09017463631831
H        -3.34065542622158    2.54971333369160    2.61198261773540
H        -1.05457256416984    1.55803922464002    2.42343654023080
Ir        0.42150000000000   -0.81650000000000    0.91330000000000
H         0.87260000000000   -2.23030000000000    1.54050000000000
B         0.49643511093240    0.41985999678289   -0.79262681866812
O         0.17578126206038   -0.03751006729288   -2.06360250945971
C         0.00922969255219    1.09585379338806   -2.94260942015341
C         0.48772322456997    0.74784292708088   -4.34814190591641
H         1.50700114918476    0.37178583741792   -4.32798666540852
H         0.44213621327808    1.62372571626345   -4.99589071032292
H        -0.15083164183161   -0.02799025324105   -4.76910280198801
C        -1.49509464433191    1.39803139955700   -2.96759309610248
H        -1.73394988219887    2.21126921402179   -3.65116271244380
H        -2.02532511371601    0.50128604805381   -3.28825020346556
H        -1.84188145102761    1.65289474449279   -1.96592922288585
C         0.83101896690459    2.20576428222307   -2.21100940271723
O         0.75620945219947    1.77627697360072   -0.83405343914834
C         2.31346259602477    2.19118362743336   -2.59941562667801
H         2.71937840338258    1.19244712598469   -2.45117160630795
H         2.46429248178564    2.51357942303486   -3.62888536747469
H         2.85587552793237    2.86600033635306   -1.93812889990378
C         0.27875708623801    3.62185702403302   -2.33685935178303
H        -0.72465273802725    3.69090067114323   -1.92483040857675
H         0.91821116954366    4.30599915896078   -1.78051146110298
H         0.26093076332939    3.93490540793684   -3.38087639932244
B         1.56242368814821    0.63577106545665    1.83890865884141
O         2.92400417837676    0.59189631277721    2.10933853504936
C         3.36280846006067    1.90434655635479    2.50292438148112
C         4.53113095304315    1.79307470491801    3.47516525591037
H         4.27792904223693    1.15991145064004    4.32191890989102
H         5.38571546020538    1.34769513345547    2.96735365827499
H         4.81718310650559    2.78014318791768    3.83704395972432
C         3.80066681566989    2.58812950203405    1.20501489298170
H         4.20392891023304    3.58215409037706    1.38970676200354
H         4.56360443885928    1.97236894742787    0.73076877726163
H         2.95241196664783    2.63915952947311    0.52346416143290
C         2.05058034064325    2.51178890838308    3.08884923400882
O         1.03484198490813    1.81898125051153    2.33544061147306
C         1.89130742706095    4.01296535484798    2.89123189439468
H         1.86614897160570    4.25637665211492    1.83279970905716
H         0.95396547145010    4.34055152563864    3.33879653014078
H         2.71299909330541    4.54704422738916    3.36739792735961
C         1.83231186005990    2.14012134448607    4.56013369940311
H         1.93818851442786    1.06436248305356    4.69727095935351
H         2.53336311780461    2.66031496208411    5.20996360613194
H         0.81773429048041    2.41582876869809    4.84759572766040
B         2.27819999999999   -1.33089999999999    0.17410000000000
O         2.90249274617546   -2.56240034403425    0.38163675855889
C         4.26814072228596   -2.48312139157449   -0.08636279729558
C         5.12771064065929   -2.05959228792925    1.10965243311987
H         4.78241438972681   -1.09622593589173    1.48249901315376
H         5.00413023092817   -2.79360348159239    1.90546778587439
H         6.18331820690990   -2.00114607006201    0.85197317570964
C         4.72055799256410   -3.84607428622559   -0.59413769685332
H         4.75104987606483   -4.54840906930374    0.23786063084596
H         5.71821355775897   -3.77449283719053   -1.02617816564147
H         4.03396838511311   -4.23427517549324   -1.34159889876874
C         4.16443930967379   -1.35729034254694   -1.16212334112360
O         3.07235176034751   -0.56165468686839   -0.66149064991680
C         5.40786247664642   -0.48915015841692   -1.31855938400733
H         6.26377249154262   -1.09504093622301   -1.61470639107067
H         5.22982057332805    0.26283502576144   -2.08605389794007
H         5.63682548550846    0.02407649869696   -0.38891187574307
C         3.72621136767668   -1.89659198068820   -2.52936794916805
H         2.83502311516825   -2.51338574148612   -2.42035171257534
H         3.46859895189042   -1.05515454043745   -3.17111738573906
H         4.51670196840087   -2.47332098737480   -3.00666275155823
H        -3.38315707419157   -3.98901834403100   -2.57893558665973
H        -5.20011846781808    1.50264846515481    1.29927955044100
C         0.23590000000000   -1.68139999999998    2.96029999999999
C        -1.00546003547863   -2.09258715707295    3.45443663652030
C         1.29946939843352   -1.90442411770853    3.86137847417412
C        -1.16870441764361   -2.60096643625619    4.74944549660075
H        -1.87792520501171   -2.07066827718938    2.81546558664972
C         1.14947201740426   -2.32195523269810    5.17826674149708
Cl        2.94088127839075   -1.83354737487921    3.35739404899592
C        -0.09510352771257   -2.68540808270127    5.63926336847793
C        -2.40123523891039   -3.13992152274897    5.17720867132898
H         2.03088991926804   -2.43728320562414    5.79009351708383
H        -0.22165541930093   -3.08307839625791    6.63486032087270
N        -3.36852062116805   -3.62949963842329    5.55780585573306
97
 energy: -145.000298777010 gnorm: 0.038599259793 xtb: 6.4.1 (1a32961)
N        -0.95466181982977   -2.09719776657883   -0.25700792133891
C        -2.22778580126661   -1.68557070700288   -0.36602247853599
C        -3.12823670288880   -2.35514727449196   -1.20152660466398
C        -2.70670678088748   -3.45459967401252   -1.91819890380816
C        -1.38843188648322   -3.87386155402905   -1.78453425448422
C        -0.55850553043921   -3.16078606369180   -0.94616753070118
H         0.47379285926064   -3.44519526017471   -0.80481984078688
H        -1.01772108159519   -4.73272730802032   -2.31833225999693
H        -4.14725313179947   -2.02134151464060   -1.29675584166246
C        -2.59651583852857   -0.51489812133975    0.43000556036808
N        -1.60894096223755    0.06497642298256    1.13816234123988
C        -1.89413040726221    1.12666748379113    1.88376395709272
C        -3.15842621759007    1.67269053602023    1.97954577906207
C        -4.18833861449291    1.08742707068936    1.25472650953606
C        -3.90141917282879   -0.01227365199782    0.47354345857862
H        -4.69068124612741   -0.47958354127769   -0.08967667081391
H        -3.33464810358244    2.52966677259665    2.60821868710514
H        -1.05665839496922    1.55156234046740    2.41323167962462
Ir        0.42150000000000   -0.81650000000000    0.91330000000000
H         0.87260000000000   -2.23030000000000    1.54050000000000
B         0.49367018032645    0.42717431369815   -0.77153212943359
O         0.15390957114849   -0.02946555133872   -2.03502097227424
C         0.00271042721992    1.09247249633051   -2.92295956612938
C         0.48507519218143    0.74217709117044   -4.32682918115758
H         1.50066476028831    0.36330759677926   -4.30905297355941
H         0.43813798573758    1.62211589421728   -4.96283682251927
H        -0.15714729407012   -0.02717047370923   -4.74668060524262
C        -1.49988244286015    1.40329509704145   -2.96546623461691
H        -1.72067725743302    2.21323504039374   -3.65336355691387
H        -2.02937271738540    0.50932040850244   -3.28735505539408
H        -1.84787967095886    1.66032018199184   -1.96729431995085
C         0.82096532409562    2.20395163270118   -2.19678994987845
O         0.75916327667646    1.77584816448043   -0.82535838468394
C         2.30043342668829    2.19662850129511   -2.59683935282254
H         2.70458681076300    1.19992703914726   -2.44316169709727
H         2.43676666853711    2.51324739579315   -3.62657471667727
H         2.84246454602900    2.87557838506299   -1.94353170396442
C         0.26600618125548    3.61864106253004   -2.32950225925927
H        -0.73288402820922    3.69310015311076   -1.91373583201681
H         0.91070791697680    4.30059152106049   -1.78219717190240
H         0.24880645567567    3.91571026505850   -3.37434579175641
B         1.56160374700153    0.65001668176802    1.84479179686458
O         2.92151179852226    0.61962247830902    2.07255480469660
C         3.35966055194390    1.91742196547503    2.49419987038620
C         4.52504532428683    1.79756873539817    3.47007919714464
H         4.27301691443698    1.15477723446403    4.30673766493679
H         5.37643374033638    1.35988870446144    2.95651366721238
H         4.80329578390600    2.78108891333810    3.83652514009707
C         3.80543763895169    2.62423946834517    1.21141226585216
H         4.20747954333114    3.61309196090680    1.40409984493198
H         4.56595747728833    2.00951308918140    0.73707441647017
H         2.95675968219434    2.66984658060847    0.53354153412615
C         2.05089164003596    2.52007562015281    3.08698144332938
O         1.03442652955115    1.81857425796536    2.35121966033361
C         1.88931121548981    4.02139688493934    2.89376088723837
H         1.85527808500482    4.26504614117737    1.83814470567859
H         0.95752702498853    4.34344401002128    3.34925914144212
H         2.71484795936560    4.54553784908823    3.36528083784670
C         1.84664994838858    2.15076837731579    4.56174396881256
H         1.95842787135942    1.07647047805021    4.68939575270946
H         2.54950395813162    2.67353786378545    5.20133925029257
H         0.83372011938742    2.41876144602548    4.85282718348074
B         2.27819999999999   -1.33089999999997    0.17410000000000
O         2.91099404058595   -2.54708405611901    0.39062375670495
C         4.26428541258559   -2.47918443571232   -0.09701909103804
C         5.14788649033150   -2.06270929734226    1.08369412364194
H         4.80997502529292   -1.09937656539015    1.45735878195320
H         5.03516423706350   -2.79364368601581    1.88025551140421
H         6.19390890199018   -2.01035068466637    0.80090732356711
C         4.71174153909328   -3.84256811345924   -0.60930793464975
H         4.74572924617961   -4.53637274056835    0.22552319880308
H         5.70456412484986   -3.76344923411358   -1.04141934089824
H         4.02348391860738   -4.23348651785672   -1.34974626753240
C         4.15762860322785   -1.35343596261781   -1.16752919276189
O         3.05730572309639   -0.57032242264235   -0.67182587078201
C         5.40092296816374   -0.48506154165649   -1.32184682272015
H         6.24869396453829   -1.09795256494099   -1.61292554562381
H         5.22338437259571    0.26057821754027   -2.09113253874137
H         5.62724069336062    0.02973402226420   -0.39549231071819
C         3.73153837147147   -1.89425341053923   -2.53805963692464
H         2.84251794401587   -2.50913835942499   -2.42616866492384
H         3.47602950397006   -1.05523573333783   -3.17979167125363
H         4.52838383072923   -2.46574004310517   -3.00247083462393
H        -3.38811973339373   -3.97937282204779   -2.56871994221774
H        -5.19146634622794    1.48157454646272    1.30074688084008
C         0.23590000000000   -1.68139999999995    2.96029999999998
C        -1.01467879188796   -2.08271425352464    3.43932202493347
C         1.29003336127359   -1.89926753688861    3.87388030999770
C        -1.19834594250893   -2.58293509676576    4.73475887214491
H        -1.87948976592323   -2.05581114190002    2.79170094125579
C         1.11894667169990   -2.31610472479235    5.18847357110101
Cl        2.93266388779418   -1.78852711420349    3.37762167125191
C        -0.13255336306707   -2.67074086815990    5.63439008848561
C        -2.43810862878655   -3.10734634444824    5.14857003314742
H         1.98963727080628   -2.42790286347245    5.81404496659486
H        -0.27580054781027   -3.06043395098854    6.62977271630150
N        -3.41525888185679   -3.58720675825858    5.51854450281535
97
 energy: -145.002410546283 gnorm: 0.037552059416 xtb: 6.4.1 (1a32961)
N        -0.94375249844190   -2.09495336222418   -0.26760129444930
C        -2.21710985353779   -1.68301751528304   -0.37030887543049
C        -3.12402059238651   -2.35177918778025   -1.20040623109445
C        -2.70972392552069   -3.45149812903514   -1.91887891710906
C        -1.38964928011180   -3.87123996436455   -1.79269313325835
C        -0.55502532472538   -3.15749502470483   -0.95947102737140
H         0.47690885034862   -3.44716355414792   -0.82450249775908
H        -1.02393628816680   -4.73063425799467   -2.32720432554453
H        -4.14269520415857   -2.01613416846050   -1.28820517703805
C        -2.58368908933592   -0.51695600519544    0.42542842644798
N        -1.59686371873453    0.06439941310538    1.13288182364595
C        -1.88675122204461    1.12345355749787    1.87799685253627
C        -3.15245928667578    1.66431915464219    1.97926056242565
C        -4.18305330530626    1.07533498010106    1.25568637350683
C        -3.89125302492546   -0.01966786982934    0.47172925315215
H        -4.67822132675295   -0.49008785926949   -0.09123771450251
H        -3.33098105523509    2.51703599578027    2.61121776500391
H        -1.05341845668119    1.55290113492815    2.41055508294704
Ir        0.42150000000000   -0.81650000000000    0.91330000000000
H         0.87260000000000   -2.23030000000000    1.54050000000000
B         0.48479929399034    0.43822497495429   -0.75174907306146
O         0.12947578634191   -0.02227039742935   -2.00890413149159
C        -0.00901480668694    1.09116386010045   -2.90263505318343
C         0.47951481857024    0.73356449905029   -4.30342981951810
H         1.49275262092187    0.34984814628181   -4.28226688506105
H         0.43753341609834    1.61545243033898   -4.93581209238174
H        -0.16608976715815   -0.03185416334612   -4.72412036512833
C        -1.51043482910059    1.41087925135455   -2.96166870849126
H        -1.71536238080043    2.21920684685749   -3.65514350778211
H        -2.04057566488287    0.51874476165474   -3.28610133572123
H        -1.86576205106272    1.67311345320181   -1.96790976424476
C         0.80980144974988    2.20500746715227   -2.18101760917257
O         0.76050670013280    1.78146247877799   -0.81210391399562
C         2.28695521111401    2.20287796486651   -2.59337504780510
H         2.69471833905268    1.20875856107042   -2.43449002610829
H         2.41033199694274    2.51242566436746   -3.62612197112752
H         2.82969878591591    2.88956366261328   -1.94946561182571
C         0.25117288738906    3.61880304404413   -2.31886803283775
H        -0.74477184697682    3.69648682832850   -1.89767969493688
H         0.90032056736310    4.30418757435992   -1.78190115015045
H         0.22862570855429    3.90308924824732   -3.36649322683912
B         1.56318596929638    0.67181537739443    1.82851623865561
O         2.92176154774644    0.65064405059934    2.02906897409858
C         3.35742699782798    1.93630350567153    2.48122824229731
C         4.52073227034485    1.80091311519204    3.46009388855898
H         4.26815383893541    1.14461175770399    4.28581406213791
H         5.37377461280041    1.37370474106041    2.94107955656632
H         4.79295658914311    2.78020094444660    3.84056891935444
C         3.81068979251106    2.66841721118135    1.21334002298682
H         4.20844192640936    3.65408792697319    1.42508291618073
H         4.57563138790946    2.06229203417664    0.73523975601371
H         2.96511689195413    2.72063383447172    0.53281004876595
C         2.04857807853336    2.52832223745268    3.08589371101100
O         1.02914384927164    1.82024209286692    2.36453041841115
C         1.88176680404275    4.03078537621145    2.89741146973117
H         1.83645512669453    4.27824790412392    1.84329055302278
H         0.95548646363090    4.35002709924836    3.36504742257194
H         2.71323152609471    4.55040876783216    3.36204209743487
C         1.86320742664106    2.16049331680345    4.56503709091719
H         1.98330166585913    1.08713210036582    4.68951301422296
H         2.56951045404392    2.68900036566493    5.19481115530888
H         0.85143215241425    2.42187507713880    4.86442537727657
B         2.27819999999998   -1.33089999999994    0.17410000000000
O         2.91959571062900   -2.53582215628456    0.40365678051895
C         4.26128149885802   -2.47474464247205   -0.10627397179880
C         5.16980005034269   -2.06422822886851    1.05941206942193
H         4.84397014848092   -1.09917095754202    1.43837791227098
H         5.06863924773876   -2.79429452244883    1.85762886882694
H         6.20896570381092   -2.01868225332333    0.75121352130148
C         4.69928209343279   -3.84043938098720   -0.62515205416412
H         4.73955585859901   -4.53229742009202    0.21034980619172
H         5.68801598830127   -3.75897905088091   -1.06444930353007
H         4.00518978690950   -4.23121537917643   -1.35962682566706
C         4.14847842112610   -1.34959693948950   -1.17667072803781
O         3.04077431025942   -0.57571199274234   -0.68752837678904
C         5.39001064078028   -0.47664016785612   -1.32841725506917
H         6.23680637281227   -1.09300096538630   -1.61275616851077
H         5.21441158951134    0.26374335025419   -2.10239455488534
H         5.61226581827333    0.04269125659706   -0.40412064688645
C         3.73489678154501   -1.89304737769308   -2.55102557713990
H         2.84725562915913   -2.50964520127817   -2.44358052326402
H         3.48342958025770   -1.05516600847302   -3.19510926517647
H         4.53903218153114   -2.46139533833458   -3.00472677092896
H        -3.39552133566945   -3.97569189653719   -2.56433266037712
H        -5.18783841793577    1.46305538287694    1.30589978999209
C         0.23590000000000   -1.68139999999990    2.96029999999997
C        -1.02504262188160   -2.07209580829260    3.41964219520575
C         1.27717498612482   -1.88870310477822    3.89043259908560
C        -1.23384242007196   -2.56013507167033    4.71595777927390
H        -1.87968532869849   -2.04234834588382    2.75859834313013
C         1.08193549408909   -2.30535309717589    5.20173028057097
Cl        2.92395348787908   -1.75393336629384    3.41015631028497
C        -0.17917586875473   -2.65124863846188    5.62909702893038
C        -2.48713447477694   -3.06242378367772    5.11436887712554
H         1.94062339390090   -2.41629389145524    5.84406964622331
H        -0.34275773699362   -3.03209319167493    6.62512629714975
N        -3.47798135591126   -3.53025156619214    5.46435229722445
97
 energy: -145.004524908369 gnorm: 0.037130679244 xtb: 6.4.1 (1a32961)
N        -0.93259348079517   -2.09837999763220   -0.27632443852851
C        -2.20697209063398   -1.68416258225684   -0.37484240279905
C        -3.11873416720555   -2.35114243843491   -1.20258286616805
C        -2.71031066764986   -3.45135704598983   -1.92364591174210
C        -1.38818071288866   -3.87161867096033   -1.80526335473635
C        -0.54811728353804   -3.15919553697967   -0.97472301962188
H         0.48510924419936   -3.45083827269079   -0.84915413290050
H        -1.02649630996787   -4.73108729724803   -2.34311060514629
H        -4.13743062640310   -2.01265813371141   -1.28399278006556
C        -2.57184322615589   -0.52004866726404    0.42196547341625
N        -1.58480897713610    0.06259176769647    1.13140648171102
C        -1.87837611175328    1.12172861999585    1.87738583777581
C        -3.14668252306701    1.65705946357196    1.98172094117506
C        -4.17764711094551    1.06471397344092    1.25840988869243
C        -3.88140278296012   -0.02580739471344    0.47008280943966
H        -4.66635426762053   -0.49908940576987   -0.09403583026722
H        -3.32761873457839    2.50709479812571    2.61688868613497
H        -1.04743489641876    1.55720848756692    2.40987286095549
Ir        0.42150000000000   -0.81650000000001    0.91330000000000
H         0.87260000000000   -2.23030000000000    1.54050000000000
B         0.47639332437134    0.45157783498967   -0.73323330700778
O         0.09992608440977   -0.01220325718221   -1.98303744536374
C        -0.02663368691994    1.09367205809996   -2.88161363897403
C         0.47036373066118    0.72269974929725   -4.27696199310272
H         1.48054497172724    0.33022055507340   -4.24518473247127
H         0.44063558501831    1.60244082323266   -4.91380625728670
H        -0.17875272238425   -0.04007094549395   -4.69822796696429
C        -1.52647880810285    1.42274177927683   -2.95756932628021
H        -1.71666935489484    2.22951037217891   -3.65749154129343
H        -2.05839070543712    0.53225711449780   -3.28470969269653
H        -1.89321954147725    1.69247600785629   -1.96946418150895
C         0.79657834566238    2.21037226164308   -2.16546265963768
O         0.76005496605856    1.79120754748673   -0.79769843552400
C         2.27151407446756    2.21260439412847   -2.58962456462542
H         2.68634313127543    1.22215507619334   -2.42352298748274
H         2.38344460832458    2.51216054475336   -3.62688993402639
H         2.81528208014462    2.91015870851784   -1.95747333978431
C         0.23243241564426    3.62278942294095   -2.30564475461132
H        -0.76001311100784    3.70143176091271   -1.87520986875193
H         0.88578812604633    4.31474503217952   -1.78108015494136
H         0.19824258677236    3.89756408753618   -3.35605030683234
B         1.56231250771753    0.68075541082487    1.82949388551479
O         2.92650485189902    0.68220518000123    1.98150927123151
C         3.35673964376486    1.95837253238265    2.46398658555339
C         4.51936953839665    1.80365892193268    3.44288614444087
H         4.26645369298106    1.12810096558826    4.25384429719376
H         5.37649187089073    1.39171510722373    2.91685694622638
H         4.78582404759033    2.77640362060464    3.84685525884426
C         3.81558156565702    2.72568112693247    1.21615481304224
H         4.20574463859646    3.70914557962853    1.45653071238575
H         4.58988358580350    2.13661361300846    0.72995344232170
H         2.97583515216310    2.79241558673774    0.52909240389734
C         2.04789817611037    2.53689100764765    3.08752035818502
O         1.02454716563315    1.81697759752839    2.38512166432579