      -----------------------------------------------------------      
     |                   =====================                   |     
     |                           x T B                           |     
     |                   =====================                   |     
     |                         S. Grimme                         |     
     |          Mulliken Center for Theoretical Chemistry        |     
     |                    University of Bonn                     |     
      -----------------------------------------------------------      

   * xtb version 6.4.0 (f63f532) compiled by 'knkr256@seskscpg008.prim.scp' on 2021-04-09

   xtb is free software: you can redistribute it and/or modify it under
   the terms of the GNU Lesser General Public License as published by
   the Free Software Foundation, either version 3 of the License, or
   (at your option) any later version.
   
   xtb is distributed in the hope that it will be useful,
   but WITHOUT ANY WARRANTY; without even the implied warranty of
   MERCHANTABILITY or FITNESS FOR A PARTICULAR PURPOSE.  See the
   GNU Lesser General Public License for more details.
   
   Cite this work as:
   * C. Bannwarth, E. Caldeweyher, S. Ehlert, A. Hansen, P. Pracht,
     J. Seibert, S. Spicher, S. Grimme, WIREs Comput. Mol. Sci., 2020, 11,
     e01493. DOI: 10.1002/wcms.1493
   
   for GFN2-xTB:
   * C. Bannwarth, S. Ehlert and S. Grimme., J. Chem. Theory Comput., 2019,
     15, 1652-1671. DOI: 10.1021/acs.jctc.8b01176
   for GFN1-xTB:
   * S. Grimme, C. Bannwarth, P. Shushkov, J. Chem. Theory Comput., 2017,
     13, 1989-2009. DOI: 10.1021/acs.jctc.7b00118
   for GFN0-xTB:
   * P. Pracht, E. Caldeweyher, S. Ehlert, S. Grimme, ChemRxiv, 2019, preprint.
     DOI: 10.26434/chemrxiv.8326202.v1
   for GFN-FF:
   * S. Spicher and S. Grimme, Angew. Chem. Int. Ed., 2020, 59, 15665-15673.
     DOI: 10.1002/anie.202004239
   
   for DFT-D4:
   * E. Caldeweyher, C. Bannwarth and S. Grimme, J. Chem. Phys., 2017,
     147, 034112. DOI: 10.1063/1.4993215
   * E. Caldeweyher, S. Ehlert, A. Hansen, H. Neugebauer, S. Spicher,
     C. Bannwarth and S. Grimme, J. Chem. Phys., 2019, 150, 154122.
     DOI: 10.1063/1.5090222
   * E. Caldeweyher, J.-M. Mewes, S. Ehlert and S. Grimme, Phys. Chem. Chem. Phys.
     2020, 22, 8499-8512. DOI: 10.1039/D0CP00502A
   
   for sTDA-xTB:
   * S. Grimme and C. Bannwarth, J. Chem. Phys., 2016, 145, 054103.
     DOI: 10.1063/1.4959605
   
   in the mass-spec context:
   * V. Asgeirsson, C. Bauer and S. Grimme, Chem. Sci., 2017, 8, 4879.
     DOI: 10.1039/c7sc00601b
   * J. Koopman and S. Grimme, ACS Omega 2019, 4, 12, 15120-15133.
     DOI: 10.1021/acsomega.9b02011
   
   for metadynamics refer to:
   * S. Grimme, J. Chem. Theory Comput., 2019, 155, 2847-2862
     DOI: 10.1021/acs.jctc.9b00143
   
   for SPH calculations refer to:
   * S. Spicher and S. Grimme, J. Chem. Theory Comput., 2021, 17, 1701-1714
     DOI: 10.1021/acs.jctc.0c01306
   
   with help from (in alphabetical order)
   P. Atkinson, C. Bannwarth, F. Bohle, G. Brandenburg, E. Caldeweyher
   M. Checinski, S. Dohm, S. Ehlert, S. Ehrlich, I. Gerasimov, J. Koopman
   C. Lavinge, S. Lehtola, F. März, M. Müller, F. Musil, H. Neugebauer
   J. Pisarek, P. Pracht, J. Seibert, P. Shushkov, S. Spicher, M. Stahn
   T. Strunk, J. Stückrath, T. Rose, and J. Unsleber
   
 * started run on 2021/10/08 at 07:34:44.104     

           -------------------------------------------------
          |                Calculation Setup                |
           -------------------------------------------------

          program call               : xtb xtbopt.xyz --sp --alpb thf -P 6
          hostname                   : seskscpg010.prim.scp
          coordinate file            : xtbopt.xyz
          omp threads                :                     6
          number of atoms            :                    99
          number of electrons        :                   262
          charge                     :                     0
          spin                       :                   0.0
          first test random number   :      0.87284851595392

   ID    Z sym.   atoms
    1    7 N      1, 11
    2    6 C      2-6, 10, 12-15, 23, 24, 28, 32, 34, 38, 44, 45, 49, 53, 55,
                  59, 65, 66, 70, 74, 76, 80, 86-89, 91-93
    3    1 H      7-9, 16-18, 20, 25-27, 29-31, 35-37, 39-41, 46-48, 50-52,
                  56-58, 60-62, 67-69, 71-73, 77-79, 81-85, 90, 95-99
    4   77 Ir     19
    5    5 B      21, 42, 63
    6    8 O      22, 33, 43, 54, 64, 75
    7   17 Cl     94

molecular fragmentation (1/2 indicates fragments):
111111111111111111111111111111111111111111111111111111111111111111111111
111111111111122222222222222
# atoms in fragment 1/2:    85    14
 fragment masses (1/2) :      730.32      125.58
CMA distance (Bohr)    :   9.127
constraining FC (au)   :  0.0500

           -------------------------------------------------
          |                 G F N 2 - x T B                 |
           -------------------------------------------------

        Reference                      10.1021/acs.jctc.8b01176
      * Hamiltonian:
        H0-scaling (s, p, d)           1.850000    2.230000    2.230000
        zeta-weighting                 0.500000
      * Dispersion:
        s8                             2.700000
        a1                             0.520000
        a2                             5.000000
        s9                             5.000000
      * Repulsion:
        kExp                           1.500000    1.000000
        rExp                           1.000000
      * Coulomb:
        alpha                          2.000000
        third order                    shell-resolved
        anisotropic                    true
        a3                             3.000000
        a5                             4.000000
        cn-shift                       1.200000
        cn-exp                         4.000000
        max-rad                        5.000000

      * Solvation model:               ALPB
        Solvent                        thf
        Parameter file                 internal GFN2-xTB/ALPB
        Dielectric constant                7.6000E+00
        Reference state                gsolv [1 M gas/solution]
        Free energy shift                  5.3248E-03 Eh       3.3414E+00 kcal/mol
        Temperature                        2.9815E+02 K
        Density                            8.8300E-01 kg/L
        Solvent mass                       7.2106E+01 g/mol
        Interaction kernel             P16
        Born radius scaling (c1)           1.7311E+00
        Born radii integrator          GBOBC
        Born offset                        0.0000E+00 a0       0.0000E+00 AA
        H-bond correction              true
        Ion screening                  false
        Surface tension                    1.0000E-05 Eh       1.5569E+01 dyn/cm
        Grid points                               230 per atom
q/qsh data taken from xtbrestart
CAMM data taken from xtbrestart

          ...................................................
          :                      SETUP                      :
          :.................................................:
          :  # basis functions                 255          :
          :  # atomic orbitals                 253          :
          :  # shells                          149          :
          :  # electrons                       262          :
          :  max. iterations                   250          :
          :  Hamiltonian                  GFN2-xTB          :
          :  restarted?                       true          :
          :  GBSA solvation                   true          :
          :  PC potential                    false          :
          :  electronic temp.          300.0000000     K    :
          :  accuracy                    1.0000000          :
          :  -> integral cutoff          0.2500000E+02      :
          :  -> integral neglect         0.1000000E-07      :
          :  -> SCF convergence          0.1000000E-05 Eh   :
          :  -> wf. convergence          0.1000000E-03 e    :
          :  Broyden damping             0.4000000          :
          ...................................................

 iter      E             dE          RMSdq      gap      omega  full diag
   1   -145.4809167 -0.145481E+03  0.328E-05    0.89       0.0  T
   2   -145.4809167 -0.696332E-11  0.328E-05    0.89     306.6  T
   3   -145.4809167 -0.228511E-10  0.228E-05    0.89     440.6  T

   *** convergence criteria satisfied after 3 iterations ***

         #    Occupation            Energy/Eh            Energy/eV
      -------------------------------------------------------------
         1        2.0000           -1.0486786             -28.5360
       ...           ...                  ...                  ...
       125        2.0000           -0.3734795             -10.1629
       126        2.0000           -0.3494015              -9.5077
       127        2.0000           -0.3337684              -9.0823
       128        2.0000           -0.3225911              -8.7782
       129        2.0000           -0.3197124              -8.6998
       130        2.0000           -0.3119098              -8.4875
       131        2.0000           -0.3088689              -8.4048 (HOMO)
       132                         -0.2759956              -7.5102 (LUMO)
       133                         -0.2482412              -6.7550
       134                         -0.2454250              -6.6784
       135                         -0.2173722              -5.9150
       136                         -0.2113976              -5.7524
       ...                                ...                  ...
       253                          3.7707326             102.6069
      -------------------------------------------------------------
                  HL-Gap            0.0328733 Eh            0.8945 eV
             Fermi-level           -0.2924133 Eh           -7.9570 eV

 SCC (total)                   0 d,  0 h,  0 min,  0.107 sec
 SCC setup                      ...        0 min,  0.002 sec (  1.892%)
 Dispersion                     ...        0 min,  0.002 sec (  1.450%)
 classical contributions        ...        0 min,  0.000 sec (  0.134%)
 integral evaluation            ...        0 min,  0.030 sec ( 27.931%)
 iterations                     ...        0 min,  0.031 sec ( 29.274%)
 molecular gradient             ...        0 min,  0.041 sec ( 38.719%)
 printout                       ...        0 min,  0.001 sec (  0.545%)

         :::::::::::::::::::::::::::::::::::::::::::::::::::::
         ::                     SUMMARY                     ::
         :::::::::::::::::::::::::::::::::::::::::::::::::::::
         :: total energy            -143.654621584621 Eh    ::
         :: total w/o Gsasa/hb      -143.615254255014 Eh    ::
         :: gradient norm              0.032581543593 Eh/a0 ::
         :: HOMO-LUMO gap              0.894528635689 eV    ::
         ::.................................................::
         :: SCC energy              -145.480916672634 Eh    ::
         :: -> isotropic ES            0.236867236680 Eh    ::
         :: -> anisotropic ES          0.008352401332 Eh    ::
         :: -> anisotropic XC          0.046022256395 Eh    ::
         :: -> dispersion             -0.140786249906 Eh    ::
         :: -> Gsolv                  -0.048607488147 Eh    ::
         ::    -> Gelec               -0.009240158541 Eh    ::
         ::    -> Gsasa               -0.042196810986 Eh    ::
         ::    -> Ghb                 -0.002495334064 Eh    ::
         ::    -> Gshift               0.005324815444 Eh    ::
         :: repulsion energy           1.817460531383 Eh    ::
         :: add. restraining           0.000000000000 Eh    ::
         :: total charge               0.000000000000 e     ::
         :::::::::::::::::::::::::::::::::::::::::::::::::::::

           -------------------------------------------------
          |                Property Printout                |
           -------------------------------------------------

    * Orbital Energies and Occupations

         #    Occupation            Energy/Eh            Energy/eV
      -------------------------------------------------------------
         1        2.0000           -1.0486786             -28.5360
       ...           ...                  ...                  ...
       119        2.0000           -0.4002956             -10.8926
       120        2.0000           -0.3907777             -10.6336
       121        2.0000           -0.3867912             -10.5251
       122        2.0000           -0.3862050             -10.5092
       123        2.0000           -0.3835317             -10.4364
       124        2.0000           -0.3824692             -10.4075
       125        2.0000           -0.3734795             -10.1629
       126        2.0000           -0.3494015              -9.5077
       127        2.0000           -0.3337684              -9.0823
       128        2.0000           -0.3225911              -8.7782
       129        2.0000           -0.3197124              -8.6998
       130        2.0000           -0.3119098              -8.4875
       131        2.0000           -0.3088689              -8.4048 (HOMO)
       132                         -0.2759956              -7.5102 (LUMO)
       133                         -0.2482412              -6.7550
       134                         -0.2454250              -6.6784
       135                         -0.2173722              -5.9150
       136                         -0.2113976              -5.7524
       137                         -0.2044536              -5.5635
       138                         -0.1882296              -5.1220
       139                         -0.1519349              -4.1344
       140                         -0.1301433              -3.5414
       141                         -0.1264131              -3.4399
       142                         -0.1230994              -3.3497
       ...                                ...                  ...
       253                          3.7707326             102.6069
      -------------------------------------------------------------
                  HL-Gap            0.0328733 Eh            0.8945 eV
             Fermi-level           -0.2924133 Eh           -7.9570 eV

     #   Z          covCN         q      C6AA      α(0)
     1   7 N        2.552    -0.123    23.700     7.230
     2   6 C        2.954     0.076    26.302     8.412
     3   6 C        2.918    -0.043    29.080     8.843
     4   6 C        2.923    -0.022    28.557     8.763
     5   6 C        2.915    -0.044    29.098     8.846
     6   6 C        2.893     0.047    26.937     8.509
     7   1 H        0.926     0.055     2.257     2.349
     8   1 H        0.926     0.056     2.247     2.344
     9   1 H        0.926     0.045     2.388     2.417
    10   6 C        2.953     0.073    26.366     8.422
    11   7 N        2.533    -0.135    23.969     7.271
    12   6 C        2.890     0.042    27.056     8.528
    13   6 C        2.915    -0.045    29.111     8.848
    14   6 C        2.923    -0.024    28.608     8.771
    15   6 C        2.918    -0.045    29.117     8.849
    16   1 H        0.926     0.043     2.416     2.430
    17   1 H        0.926     0.048     2.343     2.394
    18   1 H        0.926     0.076     2.016     2.221
    19  77 Ir       5.929    -0.147   387.153    36.386
    20   1 H        0.977     0.098     1.794     2.093
    21   5 B        2.632     0.405    15.993     6.755
    22   8 O        1.638    -0.407    20.995     6.185
    23   6 C        3.836     0.130    18.449     6.111
    24   6 C        3.755    -0.122    22.888     6.822
    25   1 H        0.925     0.054     2.267     2.354
    26   1 H        0.925     0.045     2.388     2.416
    27   1 H        0.925     0.051     2.305     2.374
    28   6 C        3.754    -0.108    22.628     6.783
    29   1 H        0.925     0.047     2.357     2.401
    30   1 H        0.925     0.041     2.438     2.442
    31   1 H        0.925     0.026     2.637     2.539
    32   6 C        3.842     0.131    18.434     6.108
    33   8 O        1.637    -0.404    20.937     6.176
    34   6 C        3.755    -0.122    22.899     6.823
    35   1 H        0.925     0.053     2.282     2.362
    36   1 H        0.925     0.046     2.372     2.408
    37   1 H        0.925     0.051     2.312     2.378
    38   6 C        3.754    -0.120    22.850     6.816
    39   1 H        0.925     0.046     2.376     2.411
    40   1 H        0.925     0.054     2.275     2.358
    41   1 H        0.925     0.045     2.383     2.414
    42   5 B        2.619     0.402    16.093     6.788
    43   8 O        1.637    -0.384    20.554     6.120
    44   6 C        3.833     0.128    18.476     6.116
    45   6 C        3.755    -0.128    23.013     6.840
    46   1 H        0.925     0.057     2.229     2.335
    47   1 H        0.925     0.057     2.238     2.339
    48   1 H        0.925     0.050     2.324     2.384
    49   6 C        3.755    -0.122    22.898     6.823
    50   1 H        0.925     0.048     2.348     2.396
    51   1 H        0.925     0.047     2.353     2.399
    52   1 H        0.925     0.053     2.288     2.365
    53   6 C        3.831     0.127    18.494     6.119
    54   8 O        1.637    -0.381    20.499     6.111
    55   6 C        3.755    -0.124    22.932     6.828
    56   1 H        0.925     0.053     2.288     2.365
    57   1 H        0.925     0.053     2.280     2.361
    58   1 H        0.925     0.048     2.340     2.392
    59   6 C        3.755    -0.126    22.981     6.835
    60   1 H        0.925     0.050     2.323     2.383
    61   1 H        0.925     0.053     2.283     2.363
    62   1 H        0.925     0.051     2.312     2.378
    63   5 B        2.628     0.401    16.058     6.772
    64   8 O        1.637    -0.372    20.326     6.086
    65   6 C        3.835     0.124    18.539     6.126
    66   6 C        3.755    -0.133    23.122     6.856
    67   1 H        0.925     0.059     2.206     2.323
    68   1 H        0.925     0.057     2.230     2.335
    69   1 H        0.925     0.052     2.297     2.370
    70   6 C        3.755    -0.130    23.061     6.847
    71   1 H        0.925     0.061     2.182     2.310
    72   1 H        0.925     0.051     2.307     2.375
    73   1 H        0.925     0.053     2.281     2.362
    74   6 C        3.830     0.127    18.504     6.120
    75   8 O        1.637    -0.376    20.399     6.097
    76   6 C        3.755    -0.126    22.967     6.833
    77   1 H        0.925     0.052     2.301     2.372
    78   1 H        0.925     0.053     2.278     2.361
    79   1 H        0.925     0.057     2.232     2.336
    80   6 C        3.755    -0.123    22.918     6.826
    81   1 H        0.925     0.041     2.435     2.440
    82   1 H        0.925     0.049     2.328     2.386
    83   1 H        0.925     0.055     2.257     2.349
    84   1 H        0.926     0.052     2.301     2.372
    85   1 H        0.926     0.046     2.369     2.407
    86   6 C        2.834    -0.030    28.749     8.787
    87   6 C        2.966    -0.040    28.995     8.832
    88   6 C        2.966     0.016    27.661     8.627
    89   6 C        2.889     0.083    26.158     8.385
    90   1 H        0.926     0.041     2.439     2.442
    91   6 C        3.759    -0.140    23.238     6.872
    92   6 C        2.930    -0.046    29.139     8.853
    93   6 C        2.946    -0.055    29.355     8.886
    94  17 Cl       0.959    -0.239   106.724    15.805
    95   1 H        0.925     0.076     2.023     2.224
    96   1 H        0.925     0.071     2.074     2.252
    97   1 H        0.925     0.052     2.291     2.367
    98   1 H        0.926     0.050     2.317     2.380
    99   1 H        0.926     0.049     2.335     2.389

 Mol. C6AA /au·bohr⁶  :     107773.370979
 Mol. C8AA /au·bohr⁸  :    2925839.602455
 Mol. α(0) /au        :        509.169322


Wiberg/Mayer (AO) data.
largest (>0.10) Wiberg bond orders for each atom

 ---------------------------------------------------------------------------
     #   Z sym  total        # sym  WBO       # sym  WBO       # sym  WBO
 ---------------------------------------------------------------------------
     1   7 N    3.399 --     6 C    1.389     2 C    1.313    19 Ir   0.437
     2   6 C    3.979 --     3 C    1.347     1 N    1.313    10 C    1.093
     3   6 C    3.988 --     4 C    1.485     2 C    1.347     9 H    0.962
                             6 C    0.106
     4   6 C    3.985 --     3 C    1.485     5 C    1.381    84 H    0.969
     5   6 C    3.979 --     6 C    1.461     4 C    1.381     8 H    0.968
     6   6 C    3.978 --     5 C    1.461     1 N    1.389     7 H    0.957
                             3 C    0.106
     7   1 H    0.997 --     6 C    0.957
     8   1 H    0.996 --     5 C    0.968
     9   1 H    0.998 --     3 C    0.962
    10   6 C    3.979 --    15 C    1.352    11 N    1.306     2 C    1.093
    11   7 N    3.378 --    12 C    1.387    10 C    1.306    19 Ir   0.398
    12   6 C    3.973 --    13 C    1.458    11 N    1.387    18 H    0.947
                            15 C    0.105
    13   6 C    3.983 --    12 C    1.458    14 C    1.384    17 H    0.969
    14   6 C    3.983 --    15 C    1.479    13 C    1.384    85 H    0.969
    15   6 C    3.989 --    14 C    1.479    10 C    1.352    16 H    0.962
                            12 C    0.105
    16   1 H    0.998 --    15 C    0.962
    17   1 H    0.997 --    13 C    0.969
    18   1 H    0.994 --    12 C    0.947
    19  77 Ir   5.129 --    63 B    0.880    42 B    0.860    21 B    0.719
                            86 C    0.577    20 H    0.529     1 N    0.437
                            11 N    0.398
    20   1 H    0.987 --    19 Ir   0.529    86 C    0.354
    21   5 B    3.275 --    33 O    1.108    22 O    1.095    19 Ir   0.719
    22   8 O    2.193 --    21 B    1.095    23 C    0.942
    23   6 C    3.943 --    24 C    0.997    28 C    0.990    22 O    0.942
                            32 C    0.941
    24   6 C    3.994 --    23 C    0.997    26 H    0.984    27 H    0.983
                            25 H    0.983
    25   1 H    0.997 --    24 C    0.983
    26   1 H    0.997 --    24 C    0.984
    27   1 H    0.997 --    24 C    0.983
    28   6 C    3.997 --    23 C    0.990    31 H    0.985    30 H    0.984
                            29 H    0.984
    29   1 H    0.997 --    28 C    0.984
    30   1 H    0.998 --    28 C    0.984
    31   1 H    0.999 --    28 C    0.985
    32   6 C    3.940 --    38 C    0.997    34 C    0.991    23 C    0.941
                            33 O    0.939
    33   8 O    2.199 --    21 B    1.108    32 C    0.939
    34   6 C    3.994 --    32 C    0.991    36 H    0.984    37 H    0.982
                            35 H    0.981
    35   1 H    0.997 --    34 C    0.981
    36   1 H    0.997 --    34 C    0.984
    37   1 H    0.997 --    34 C    0.982
    38   6 C    3.994 --    32 C    0.997    41 H    0.984    39 H    0.983
                            40 H    0.983
    39   1 H    0.998 --    38 C    0.983
    40   1 H    0.997 --    38 C    0.983
    41   1 H    0.997 --    38 C    0.984
    42   5 B    3.336 --    54 O    1.111    43 O    1.109    19 Ir   0.860
    43   8 O    2.225 --    42 B    1.109    44 C    0.936
    44   6 C    3.937 --    45 C    0.997    49 C    0.991    53 C    0.939
                            43 O    0.936
    45   6 C    3.992 --    44 C    0.997    48 H    0.983    47 H    0.982
                            46 H    0.981
    46   1 H    0.997 --    45 C    0.981
    47   1 H    0.997 --    45 C    0.982
    48   1 H    0.996 --    45 C    0.983
    49   6 C    3.993 --    44 C    0.991    50 H    0.983    51 H    0.983
                            52 H    0.979
    50   1 H    0.997 --    49 C    0.983
    51   1 H    0.997 --    49 C    0.983
    52   1 H    0.997 --    49 C    0.979
    53   6 C    3.937 --    55 C    0.996    59 C    0.992    44 C    0.939
                            54 O    0.934
    54   8 O    2.231 --    42 B    1.111    53 C    0.934
    55   6 C    3.993 --    53 C    0.996    58 H    0.983    57 H    0.983
                            56 H    0.983
    56   1 H    0.997 --    55 C    0.983
    57   1 H    0.997 --    55 C    0.983
    58   1 H    0.996 --    55 C    0.983
    59   6 C    3.994 --    53 C    0.992    61 H    0.983    62 H    0.983
                            60 H    0.982
    60   1 H    0.998 --    59 C    0.982
    61   1 H    0.996 --    59 C    0.983
    62   1 H    0.997 --    59 C    0.983
    63   5 B    3.371 --    75 O    1.121    64 O    1.115    19 Ir   0.880
    64   8 O    2.231 --    63 B    1.115    65 C    0.937
    65   6 C    3.937 --    70 C    0.997    66 C    0.991    74 C    0.938
                            64 O    0.937
    66   6 C    3.992 --    65 C    0.991    69 H    0.983    68 H    0.982
                            67 H    0.979
    67   1 H    0.996 --    66 C    0.979
    68   1 H    0.996 --    66 C    0.982
    69   1 H    0.996 --    66 C    0.983
    70   6 C    3.992 --    65 C    0.997    72 H    0.983    73 H    0.982
                            71 H    0.982
    71   1 H    0.996 --    70 C    0.982
    72   1 H    0.996 --    70 C    0.983
    73   1 H    0.997 --    70 C    0.982
    74   6 C    3.935 --    76 C    0.996    80 C    0.991    65 C    0.938
                            75 O    0.935
    75   8 O    2.239 --    63 B    1.121    74 C    0.935
    76   6 C    3.992 --    74 C    0.996    77 H    0.983    78 H    0.982
                            79 H    0.982
    77   1 H    0.996 --    76 C    0.983
    78   1 H    0.997 --    76 C    0.982
    79   1 H    0.997 --    76 C    0.982
    80   6 C    3.995 --    74 C    0.991    81 H    0.984    82 H    0.983
                            83 H    0.983
    81   1 H    0.998 --    80 C    0.984
    82   1 H    0.997 --    80 C    0.983
    83   1 H    0.996 --    80 C    0.983
    84   1 H    0.996 --     4 C    0.969
    85   1 H    0.997 --    14 C    0.969
    86   6 C    3.946 --    87 C    1.391    88 C    1.345    19 Ir   0.577
                            20 H    0.354
    87   6 C    3.987 --    89 C    1.402    86 C    1.391    90 H    0.958
    88   6 C    3.986 --    92 C    1.420    86 C    1.345    91 C    1.028
    89   6 C    3.892 --    93 C    1.409    87 C    1.402    94 Cl   0.926
    90   1 H    0.998 --    87 C    0.958
    91   6 C    3.989 --    88 C    1.028    97 H    0.984    96 H    0.961
                            95 H    0.953
    92   6 C    3.985 --    93 C    1.421    88 C    1.420    98 H    0.964
    93   6 C    3.983 --    92 C    1.421    89 C    1.409    99 H    0.968
    94  17 Cl   1.041 --    89 C    0.926
    95   1 H    0.994 --    91 C    0.953
    96   1 H    0.994 --    91 C    0.961
    97   1 H    0.997 --    91 C    0.984
    98   1 H    0.995 --    92 C    0.964
    99   1 H    0.996 --    93 C    0.968
 ---------------------------------------------------------------------------

Topologies differ in total number of bonds
Writing topology from bond orders to xtbtopo.mol

molecular dipole:
                 x           y           z       tot (Debye)
 q only:        2.077       0.484      -1.420
   full:        0.455       0.764      -1.898       5.327
molecular quadrupole (traceless):
                xx          xy          yy          xz          yz          zz
 q only:       10.450      -9.266       3.590      25.055      16.712     -14.040
  q+dip:       12.424      -6.368       1.543      22.722      21.010     -13.966
   full:       10.736      -5.165       3.486      20.243      18.164     -14.222


           -------------------------------------------------
          | TOTAL ENERGY             -143.654621584621 Eh   |
          | GRADIENT NORM               0.032581543593 Eh/α |
          | HOMO-LUMO GAP               0.894528635689 eV   |
           -------------------------------------------------

------------------------------------------------------------------------
 * finished run on 2021/10/08 at 07:34:44.255     
------------------------------------------------------------------------
 total:
 * wall-time:     0 d,  0 h,  0 min,  0.151 sec
 *  cpu-time:     0 d,  0 h,  0 min,  0.885 sec
 * ratio c/w:     5.851 speedup
 SCF:
 * wall-time:     0 d,  0 h,  0 min,  0.108 sec
 *  cpu-time:     0 d,  0 h,  0 min,  0.648 sec
 * ratio c/w:     5.978 speedup

