99
 energy: -143.624523787651 gnorm: 0.081998244246 xtb: 6.4.0 (f63f532)
N        -0.96510000000000   -2.11530000000000   -0.24090000000000
C        -2.24700000000000   -1.69840000000000   -0.36220000000000
C        -3.14040000000000   -2.36820000000000   -1.21200000000000
C        -2.70220000000000   -3.47560000000000   -1.93050000000000
C        -1.37780000000000   -3.89880000000000   -1.78760000000000
C        -0.54290000000000   -3.18670000000000   -0.93510000000000
H         0.49810000000000   -3.45630000000000   -0.78940000000000
H        -0.99570000000000   -4.76030000000000   -2.32770000000000
H        -4.16500000000000   -2.02890000000000   -1.31830000000000
C        -2.62130000000000   -0.50950000000000    0.44100000000000
N        -1.62600000000000    0.07330000000000    1.16020000000000
C        -1.89680000000000    1.15240000000000    1.91690000000000
C        -3.17230000000000    1.70330000000000    1.99650000000000
C        -4.20510000000000    1.11740000000000    1.26270000000000
C        -3.92610000000000    0.00250000000000    0.47820000000000
H        -4.71960000000000   -0.46420000000000   -0.09520000000000
H        -3.34630000000000    2.57510000000000    2.62070000000000
H        -1.04450000000000    1.57420000000000    2.43690000000000
Ir        0.42150000000000   -0.81650000000000    0.91330000000000
H         0.87260000000000   -2.23030000000000    1.54050000000000
B         0.50670000000000    0.41560000000000   -0.81540000000000
O         0.19500000000000   -0.04700000000000   -2.09150000000000
C         0.00650000000000    1.10040000000000   -2.95430000000000
C         0.49020000000000    0.74740000000000   -4.35780000000000
H         1.51610000000000    0.37380000000000   -4.33700000000000
H         0.44730000000000    1.62240000000000   -5.01670000000000
H        -0.14740000000000   -0.03390000000000   -4.78430000000000
C        -1.50120000000000    1.39560000000000   -2.96670000000000
H        -1.75370000000000    2.21460000000000   -3.64850000000000
H        -2.03200000000000    0.49450000000000   -3.28930000000000
H        -1.85170000000000    1.65210000000000   -1.96220000000000
C         0.84230000000000    2.20670000000000   -2.22040000000000
O         0.75200000000000    1.78260000000000   -0.83690000000000
C         2.32930000000000    2.18620000000000   -2.59900000000000
H         2.74130000000000    1.18500000000000   -2.45750000000000
H         2.48870000000000    2.51300000000000   -3.63180000000000
H         2.87200000000000    2.86270000000000   -1.93200000000000
C         0.28440000000000    3.62290000000000   -2.33660000000000
H        -0.72650000000000    3.69040000000000   -1.92910000000000
H         0.92130000000000    4.31480000000000   -1.77610000000000
H         0.26430000000000    3.94810000000000   -3.38320000000000
B         1.56300000000000    0.60960000000000    1.84840000000000
O         2.92780000000000    0.55230000000000    2.15020000000000
C         3.36330000000000    1.88660000000000    2.50260000000000
C         4.53140000000000    1.78590000000000    3.47740000000000
H         4.27910000000000    1.16090000000000    4.33690000000000
H         5.39390000000000    1.33790000000000    2.97340000000000
H         4.82390000000000    2.77870000000000    3.83820000000000
C         3.79700000000000    2.56850000000000    1.19670000000000
H         4.20020000000000    3.57090000000000    1.37680000000000
H         4.56740000000000    1.95560000000000    0.72110000000000
H         2.95240000000000    2.63260000000000    0.50540000000000
C         2.05040000000000    2.50090000000000    3.09320000000000
O         1.03750000000000    1.81620000000000    2.31910000000000
C         1.89100000000000    4.00450000000000    2.88650000000000
H         1.87290000000000    4.25440000000000    1.82410000000000
H         0.94940000000000    4.34260000000000    3.33170000000000
H         2.71080000000000    4.55150000000000    3.36630000000000
C         1.82470000000000    2.13200000000000    4.56520000000000
H         1.92610000000000    1.05330000000000    4.71320000000000
H         2.52610000000000    2.65280000000000    5.22540000000000
H         0.80630000000000    2.41580000000000    4.84900000000000
B         2.27820000000000   -1.33090000000000    0.17410000000000
O         2.89460000000000   -2.57740000000000    0.38450000000000
C         4.26930000000000   -2.48200000000000   -0.07210000000000
C         5.10900000000000   -2.05380000000000    1.14010000000000
H         4.76350000000000   -1.08740000000000    1.51750000000000
H         4.98050000000000   -2.79470000000000    1.93590000000000
H         6.17420000000000   -1.99290000000000    0.89300000000000
C         4.71950000000000   -3.84660000000000   -0.58470000000000
H         4.75280000000000   -4.56130000000000    0.24420000000000
H         5.72330000000000   -3.78370000000000   -1.02010000000000
H         4.03500000000000   -4.23600000000000   -1.34170000000000
C         4.16440000000000   -1.36220000000000   -1.16300000000000
O         3.08520000000000   -0.55030000000000   -0.65400000000000
C         5.40720000000000   -0.48870000000000   -1.31550000000000
H         6.27320000000000   -1.09010000000000   -1.61530000000000
H         5.23300000000000    0.26930000000000   -2.08590000000000
H         5.64270000000000    0.02650000000000   -0.38240000000000
C         3.71800000000000   -1.89830000000000   -2.53110000000000
H         2.82530000000000   -2.52160000000000   -2.42740000000000
H         3.46090000000000   -1.05250000000000   -3.17550000000000
H         4.50570000000000   -2.48290000000000   -3.01790000000000
H        -3.38500000000000   -4.00130000000000   -2.59310000000000
H        -5.21400000000000    1.52080000000000    1.29960000000000
C         0.23590000000000   -1.68140000000000    2.96030000000000
C        -0.97095094791300   -2.19059993033222    3.44522848346272
C         1.33621867261039   -1.81240485736519    3.84541703105105
C        -1.09560941205578   -2.67773453146864    4.74136910564051
H        -1.83165071651466   -2.27297548935636    2.79448818662900
C         2.79046674099294   -1.74718675609154    3.48089605648168
C         1.16535735015672   -2.18665207231737    5.17743948382306
C        -0.05024827150553   -2.64364985114018    5.65029645056892
Cl       -2.57371698871460   -3.44010006327598    5.22746426919621
H         2.91968729672951   -1.67663594430576    2.40961359916553
H         3.29130450193502   -2.64580571324488    3.84558349493337
H         3.28429293052870   -0.89146534285167    3.94022399794303
H         2.03671840720946   -2.21462368032192    5.82253031374362
H        -0.14463471831504   -3.02781844942705    6.65684272830194
99
 energy: -143.633797345156 gnorm: 0.053307967708 xtb: 6.4.0 (f63f532)
N        -0.96235071613355   -2.10394196959177   -0.24726278700108
C        -2.24010091183396   -1.69331122347189   -0.36025239706520
C        -3.13442336719172   -2.36438043507886   -1.20337193773657
C        -2.70376575831978   -3.46556783426259   -1.91984809848342
C        -1.38366314076763   -3.88407189991338   -1.78137342849675
C        -0.55401107473282   -3.17019985715670   -0.93842050822542
H         0.48024581375046   -3.44916610339793   -0.79018354306037
H        -1.00701547187421   -4.74361935392063   -2.31747808796251
H        -4.15525608485469   -2.02943833895483   -1.30706196098278
C        -2.61185532159440   -0.51633627050825    0.44083525896800
N        -1.61993433736826    0.06375945382079    1.15240695087282
C        -1.89763864787096    1.13524212727519    1.89908366133459
C        -3.16458244141682    1.68506138089967    1.98733171521861
C        -4.19598770846286    1.10084175130051    1.26099512325697
C        -3.91482726327872   -0.00598626220698    0.48064500738662
H        -4.70668250658138   -0.46928916214525   -0.08795023104696
H        -3.33945370509341    2.54872220087618    2.61373373111576
H        -1.05386263049463    1.55443981235995    2.42654631834114
Ir        0.42150000000000   -0.81650000000000    0.91329999999998
H         0.87260000000001   -2.23030000000000    1.54049999999999
B         0.49068925204044    0.42294374572006   -0.79148126555518
O         0.17455460562523   -0.03563358053923   -2.06384839316638
C         0.00736806822526    1.09675260244171   -2.94324801051944
C         0.48549933658483    0.74819590401557   -4.34888239426624
H         1.50487763603731    0.37241955048147   -4.32856439226659
H         0.43948827347035    1.62363547969630   -4.99733153916340
H        -0.15283725633672   -0.02821156178853   -4.76926664799929
C        -1.49731619556014    1.39787844951960   -2.96716414322853
H        -1.73807169954297    2.21101298092292   -3.65030767029686
H        -2.02725850034075    0.50056610070477   -3.28692068997580
H        -1.84340715222128    1.65194350465207   -1.96503946014627
C         0.82944556991204    2.20683995737493   -2.21228929750517
O         0.75389146332187    1.77904256550834   -0.83545774936332
C         2.31213595520383    2.19163538251182   -2.60021712197948
H         2.71740453397615    1.19273152111298   -2.45147719593197
H         2.46352335533441    2.51396570711446   -3.62972154942892
H         2.85430402699011    2.86624769920288   -1.93858098828006
C         0.27691569721887    3.62283356305641   -2.33773551714560
H        -0.72633166140210    3.69090458783353   -1.92504626348246
H         0.91610463189183    4.30673437271900   -1.78076335329966
H         0.25830667817937    3.93662797173141   -3.38155492056474
B         1.55917749948600    0.63860962966171    1.83765115241714
O         2.92459405417664    0.60269976393592    2.09162635775473
C         3.36172975016320    1.91050125566783    2.49804210967511
C         4.53133622183880    1.79709809713735    3.47005665089998
H         4.27861965900327    1.16928368405715    4.32080498069841
H         5.38547182046869    1.34970588475085    2.96335485378467
H         4.81941079447517    2.78325778006762    3.83219223133603
C         3.80130602176377    2.59471274065067    1.20163955128049
H         4.20481586744592    3.58853764796757    1.38564860804590
H         4.56306717613329    1.97677995476169    0.72842635723954
H         2.95249450640144    2.64363537781057    0.52100538444547
C         2.04947226561147    2.51371372956435    3.08782734355386
O         1.03340958230840    1.82211430360626    2.33479671460966
C         1.89061693273233    4.01500384624995    2.89142840100900
H         1.86510004517217    4.25792963559980    1.83294313096645
H         0.95319090477190    4.34222481331470    3.33892328396709
H         2.71235818867131    4.54940435556048    3.36735007333422
C         1.83246524578667    2.14131387866543    4.55939978748656
H         1.93255143587663    1.06528631562339    4.69526511544989
H         2.53392798921695    2.66050153384273    5.21020056856954
H         0.81854466483399    2.41794096135466    4.84726910999471
B         2.27819999999993   -1.33090000000003    0.17410000000014
O         2.90353112845531   -2.56445325431713    0.37542269043341
C         4.27023796798646   -2.48225010620700   -0.08749227291486
C         5.12551088995909   -2.05739639476288    1.11184281266914
H         4.78213839574706   -1.09320312160438    1.48284168872247
H         4.99743764905337   -2.79052116516330    1.90691295062315
H         6.18147673926158   -2.00241008048134    0.85497777462823
C         4.72317636431622   -3.84504742689750   -0.59556936157698
H         4.75265272822536   -4.54786890379712    0.23594699922611
H         5.72072507521218   -3.77425138560567   -1.02782207062556
H         4.03642688524332   -4.23300111301885   -1.34292216317343
C         4.16548040670605   -1.35663263596337   -1.16329026048009
O         3.07361556393991   -0.56203398619907   -0.66077540259161
C         5.40822918190920   -0.48771964770690   -1.31995580386337
H         6.26438404751429   -1.09277290368482   -1.61712862154526
H         5.22897982857599    0.26412818281318   -2.08718136691974
H         5.63659703872797    0.02562507514369   -0.39038694307860
C         3.72602540710163   -1.89593937395712   -2.53032654944123
H         2.83474385180678   -2.51243789901249   -2.42055781230426
H         3.46717916263274   -1.05454400706091   -3.17156919397593
H         4.51556530037708   -2.47269460230346   -3.00926722301498
H        -3.38323286877832   -3.99048299759474   -2.57775982576354
H        -5.20016087703477    1.50197045698043    1.30179926973580
C         0.23589999999978   -1.68140000000018    2.96029999999978
C        -0.98363281328008   -2.17370776596829    3.43468980336750
C         1.32673987919728   -1.81932253779979    3.85861288875490
C        -1.12460967628920   -2.65734888377665    4.72944218229027
H        -1.84040550657328   -2.24607751798393    2.77922457525890
C         2.78025256441573   -1.76257905251423    3.49611594103690
C         1.13483200606451   -2.19043281359488    5.18579107838946
C        -0.08728935757628   -2.63341414045358    5.64493171263379
Cl       -2.61859737729296   -3.40583241851788    5.20591462330319
H         2.90993312584323   -1.69338940435304    2.43062834159636
H         3.27274857970132   -2.66357050861371    3.86084169754532
H         3.27417513363854   -0.90973122873627    3.95421557927401
H         1.99733509525089   -2.22524211963481    5.83877973786968
H        -0.19546973800392   -3.01526770634546    6.64874271959871
99
 energy: -143.638181018386 gnorm: 0.043394662044 xtb: 6.4.0 (f63f532)
N        -0.95523098260229   -2.09951023809499   -0.25070301405217
C        -2.23055703119063   -1.69086412880728   -0.35748040238177
C        -3.12980287152175   -2.36069307551646   -1.19521990716082
C        -2.70719564283181   -3.45789729915461   -1.91344389033946
C        -1.38746634389981   -3.87558781300436   -1.78001910661116
C        -0.55891276381056   -3.16215437046743   -0.94167146139291
H         0.47365826599302   -3.44530703759029   -0.80102320097802
H        -1.01636240273051   -4.73360840168280   -2.31521595696300
H        -4.14926638558877   -2.02760008066532   -1.29085169945309
C        -2.59888827191004   -0.52339962997351    0.44021709799230
N        -1.60973860860886    0.05306459428132    1.15055591968863
C        -1.89392271641652    1.11728836849179    1.89316730194586
C        -3.15622562167830    1.66719321283211    1.98633013294911
C        -4.18816045298045    1.08326570734827    1.26181147402654
C        -3.90288072349681   -0.01662914697581    0.48158823311922
H        -4.69272833812585   -0.48150513026654   -0.08338392442680
H        -3.33171541062649    2.52595361017800    2.61315051215374
H        -1.05586614532056    1.54142579908962    2.42204690913893
Ir        0.42149999999999   -0.81650000000001    0.91329999999994
H         0.87260000000002   -2.23030000000001    1.54049999999997
B         0.48805691694522    0.43210329061449   -0.76978432235615
O         0.15100597019104   -0.02593138879463   -2.03504637376748
C        -0.00157183633887    1.09401587630298   -2.92375712131223
C         0.47906011849563    0.74340485395525   -4.32841844880488
H         1.49489233738574    0.36549095614679   -4.31112563480313
H         0.43058312929213    1.62257641839400   -4.96541773225216
H        -0.16270930979500   -0.02703542006614   -4.74691418137401
C        -1.50475043269324    1.40308842166173   -2.96405746034123
H        -1.72939875086007    2.21261550168508   -3.65112153623044
H        -2.03342056982094    0.50795198838290   -3.28419405242195
H        -1.85082117733332    1.65848494510906   -1.96483851177031
C         0.81636017235378    2.20659644544640   -2.19922778151843
O         0.75381265192585    1.78117817522364   -0.82827548722904
C         2.29613156285824    2.19823010634908   -2.59879421509368
H         2.69868976037609    1.20115299327141   -2.44405771164742
H         2.43354054583598    2.51455945265577   -3.62849492766125
H         2.83786083659104    2.87656784500330   -1.94488341881054
C         0.26112901679504    3.62119505760528   -2.33204831710652
H        -0.73733894541512    3.69386686286241   -1.91505079957863
H         0.90542222637179    4.30251314799061   -1.78365117858794
H         0.24269921158758    3.91969903154978   -3.37638936285974
B         1.55769717607430    0.65482437115675    1.83985880164876
O         2.91954774770918    0.62905356814392    2.05665680741794
C         3.35759174763246    1.92258854497907    2.48640779360210
C         4.52543334606457    1.80503188277716    3.46123674653002
H         4.27462946265997    1.17595141109561    4.30809929045757
H         5.37435954688515    1.36103312523151    2.94968735745728
H         4.80768630652710    2.78991694033179    3.82037553261751
C         3.80545082231223    2.63407035395313    1.20663576554523
H         4.20784875441421    3.62314806260879    1.39630081983584
H         4.56413474680972    2.01699719500793    0.73320290389710
H         2.95642880838252    2.67687493284996    0.52963621675095
C         2.04973095781715    2.52291138669608    3.08380246061212
O         1.03286858531564    1.82253457855758    2.35024611747570
C         1.88791852659938    4.02486683631674    2.89312682849922
H         1.85340229109874    4.26829100270134    1.83767220853528
H         0.95606446194417    4.34640128981318    3.34856460870532
H         2.71317419293365    4.54949228241561    3.36457501540896
C         1.84637965998086    2.15341028604842    4.55899150573234
H         1.94605638014605    1.07841342757942    4.68441828071918
H         2.55107880440063    2.67273223890213    5.19979462381271
H         0.83510502819310    2.42599750932165    4.85046376846920
B         2.27819999999981   -1.33090000000007    0.17410000000035
O         2.91314150431259   -2.55097029389188    0.38006510825585
C         4.26744395503445   -2.47761042069915   -0.10090415379171
C         5.14521478790577   -2.05822297195665    1.08398868627255
H         4.80967799037535   -1.09258457367087    1.45136006417458
H         5.02386297225867   -2.78653860077453    1.88016480815385
H         6.19215279208942   -2.01239015194236    0.80430773348890
C         4.71889682413099   -3.84000075644034   -0.61255547887130
H         4.75172898900455   -4.53416543263747    0.22174826043505
H         5.71143045066790   -3.76125382251780   -1.04500863765757
H         4.03054380265437   -4.23083583792937   -1.35263704346602
C         4.15924694540213   -1.35111044260980   -1.16993999004441
O         3.05894503237976   -0.57061248070048   -0.67064212971386
C         5.40134519682295   -0.48142019068023   -1.32548677478414
H         6.24938621153942   -1.09271323245791   -1.61874451321714
H         5.22144923513838    0.26422984392582   -2.09393138895885
H         5.62701065798124    0.03310545602254   -0.39923192980089
C         3.73066123149033   -1.89191917862016   -2.53980461455534
H         2.84183543515631   -2.50650893957523   -2.42558583802529
H         3.47247376204972   -1.05296991809341   -3.18032528280658
H         4.52585065760207   -2.46308992107990   -3.00729731779913
H        -3.38784873644176   -3.98271314197420   -2.56508446388255
H        -5.19075384507831    1.47970162064952    1.30723029606140
C         0.23589999999941   -1.68140000000045    2.96029999999943
C        -1.00257399262992   -2.14769177282906    3.41495416202994
C         1.31204392575795   -1.82683943930524    3.87379549181889
C        -1.17225530031797   -2.62260802266593    4.70846504223998
H        -1.85228772574050   -2.20228402567318    2.74900457880607
C         2.76530838984923   -1.76332753416853    3.51173104783370
C         1.09037464005920   -2.19646971497925    5.19588027301774
C        -0.14703501629925   -2.61593016241539    5.63625454913103
Cl       -2.69469294919344   -3.33908598686098    5.16802137997846
H         2.89523890103907   -1.69028670502002    2.44768471763506
H         3.25415950831616   -2.66621341135104    3.87554307679359
H         3.25612098699458   -0.91200753089629    3.97304389282274
H         1.93955444737776   -2.24109669176470    5.86426318919276
H        -0.27995846310141   -2.99120119537666    6.63896374417644
99
 energy: -143.641326163958 gnorm: 0.041741719865 xtb: 6.4.0 (f63f532)
N        -0.94434613389739   -2.09840524685420   -0.25870635397509
C        -2.22081556415704   -1.69113616586453   -0.35738093964939
C        -3.12663415464596   -2.36107742494271   -1.18915636463043
C        -2.71068509136873   -3.45725098957378   -1.91043612781715
C        -1.38851433076727   -3.87447461264931   -1.78522740042793
C        -0.55548299197270   -3.15987822255082   -0.95249403408480
H         0.47713876304913   -3.44728544787375   -0.81907781093959
H        -1.02222960276670   -4.73246323636183   -2.32176013085912
H        -4.14629888637678   -2.02715391379185   -1.27587035567710
C        -2.58675947502015   -0.52929516156294    0.44042385147212
N        -1.59763276242579    0.04802334562939    1.14985889338989
C        -1.88636578472698    1.10857614265679    1.89335808549513
C        -3.14934530827251    1.65459227891021    1.99176472455479
C        -4.18257909347284    1.06824971648782    1.26784610295366
C        -3.89332556420326   -0.02718500854712    0.48514212897207
H        -4.68103155143091   -0.49457936661631   -0.07997677757305
H        -3.32653231717964    2.50946565936034    2.62143066385269
H        -1.05247220558612    1.53569060069955    2.42661303241748
Ir        0.42149999999998   -0.81650000000001    0.91329999999989
H         0.87260000000004   -2.23030000000001    1.54049999999995
B         0.47433431281867    0.44574829284587   -0.74910335482147
O         0.12396199892971   -0.01711727935664   -2.00886854509420
C        -0.01643149190779    1.09356955545444   -2.90348081481177
C         0.46981457631704    0.73598972393904   -4.30546603566866
H         1.48365188724297    0.35409630279921   -4.28597341211850
H         0.42476025668967    1.61724975078393   -4.93855610713752
H        -0.17523660689247   -0.03090468876087   -4.72425835358489
C        -1.51867895594039    1.41083909155121   -2.95948126919799
H        -1.72845002253656    2.21867980940541   -3.65189047848594
H        -2.04755430608106    0.51707584734181   -3.28165882344687
H        -1.87105101035315    1.67103406835585   -1.96418922690384
C         0.80193432218167    2.20893389453616   -2.18403037312376
O         0.75174359533030    1.78923375942415   -0.81566717407346
C         2.27944668326723    2.20520664938155   -2.59616277289701
H         2.68487801025006    1.21045025489556   -2.43602878915677
H         2.40396961968541    2.51431875660993   -3.62889423849125
H         2.82216290574306    2.89112292665692   -1.95170668509317
C         0.24332374331171    3.62277875837190   -2.32303212849316
H        -0.75224756649195    3.69893694249018   -1.90073770840675
H         0.89220704392713    4.30749198931657   -1.78506164365355
H         0.21977429212093    3.90819558001150   -3.37024097901501
B         1.55810874330961    0.67212382531345    1.83216975314018
O         2.91912638307679    0.65750884634129    2.02018189418431
C         3.35385821449345    1.94079568449707    2.47369404580323
C         4.52205395054329    1.81298723784534    3.44897146369967
H         4.27162720506052    1.17916622447561    4.29170966359096
H         5.36963454666439    1.37278073748163    2.93294619272601
H         4.80134905472694    2.79682073354104    3.81150398353271
C         3.80750835639402    2.67559252880402    1.20668746872973
H         4.20477945603386    3.66181533256881    1.41545506476672
H         4.57166169834473    2.06860327547432    0.72915823475031
H         2.96161990160332    2.72547311980132    0.52691942947628
C         2.04582933869612    2.53196417125322    3.08176090813201
O         1.02723521500920    1.82326011000651    2.36367317631192
C         1.87981830652446    4.03519832612115    2.89432730624119
H         1.83466272169711    4.28261956019637    1.84040827764431
H         0.95333423997693    4.35409901155991    3.36147163956618
H         2.71068718912728    4.55515723422884    3.35964435624326
C         1.86022942532593    2.16579324111233    4.56162148107733
H         1.96229300783587    1.09105177072555    4.68308131990489
H         2.57103586664501    2.68743217423337    5.19226033938474
H         0.85129907159835    2.43694718720121    4.86110207337493
B         2.27819999999966   -1.33090000000013    0.17410000000063
O         2.92238085632784   -2.54123366934219    0.38932321022718
C         4.26487787069247   -2.47189374425540   -0.11312845695403
C         5.16608117977331   -2.05693432431316    1.05755332235725
H         4.84173674085543   -1.08882239820058    1.42741130904180
H         5.05399153719626   -2.78308532036203    1.85612939117717
H         6.20674073758617   -2.01971333510860    0.75426259473919
C         4.71053370024344   -3.83543147700800   -0.63151682795204
H         4.75075599910099   -4.52725096634041    0.20375528707813
H         5.69914935556565   -3.75224387271842   -1.07039019320863
H         4.01771604960931   -4.22791362521381   -1.36602876045839
C         4.14938149492752   -1.34530083337380   -1.18081684342504
O         3.04222432511392   -0.57492264490089   -0.68561193196878
C         5.38957259969267   -0.47083836829203   -1.33456342346279
H         6.23626165070409   -1.08547410023177   -1.62250356484258
H         5.21068880950068    0.26988374227682   -2.10719359181300
H         5.61247158146482    0.04774415749063   -0.41044987311987
C         3.73194840834745   -1.88821659206125   -2.55427159678699
H         2.84515173276501   -2.50512482414917   -2.44279193916175
H         3.47640172225269   -1.05048556043452   -3.19668901458653
H         4.53421766835088   -2.45580887582200   -3.01202491857658
H        -3.39533276576787   -3.98148396817952   -2.55737585578645
H        -5.18629300691172    1.45960062311853    1.31712816592941
C         0.23589999999894   -1.68140000000080    2.96029999999898
C        -1.02379553962468   -2.11626904245278    3.38971797668247
C         1.29335054866973   -1.83542950905231    3.89093664310718
C        -1.22918009279230   -2.57751931244229    4.68235866456465
H        -1.86260555255040   -2.15236817317124    2.70833664704448
C         2.74935577826187   -1.76746568401229    3.54027470478550
C         1.03816168949244   -2.20295817175384    5.20766945860947
C        -0.21883276869304   -2.59279489586849    5.62602595540327
Cl       -2.78619369668365   -3.24841326241543    5.12039156282374
H         2.88522796627318   -1.68965245217536    2.47652371774811
H         3.23803954499351   -2.67053519137767    3.90371757555723
H         3.23406601766935   -0.91578519349414    4.00712516819316
H         1.87167028248668   -2.26210821647050    5.89519261667354
H        -0.38234361860508   -2.95865215341877    6.62843309102499
99
 energy: -143.644266910996 gnorm: 0.040281457632 xtb: 6.4.0 (f63f532)
N        -0.93371387364518   -2.10146386150476   -0.26626918670718
C        -2.21218500304614   -1.69420092261128   -0.35839938912297
C        -3.12319812777594   -2.36445057880700   -1.18576380380010
C        -2.71208536903928   -3.46020490165324   -1.91053262716797
C        -1.38733794533595   -3.87654823447725   -1.79418439975392
C        -0.54861902996400   -3.16194888688800   -0.96549182927964
H         0.48576075543478   -3.44988112887086   -0.84177495945223
H        -1.02463909473054   -4.73439693573749   -2.33420321155007
H        -4.14379460149359   -2.02956164344228   -1.26386704799038
C        -2.57649807891426   -0.53428221533618    0.44087825604205
N        -1.58646400739549    0.04425152534029    1.15146114718159
C        -1.87841551219922    1.10266061532732    1.89923521587031
C        -3.14371888585740    1.64365706170603    2.00135781577579
C        -4.17753739652697    1.05582519006532    1.27653824559448
C        -3.88502600058942   -0.03528537461350    0.48902000972067
H        -4.67125453593801   -0.50559509010735   -0.07666002632144
H        -3.32278836348787    2.49535575424959    2.63523929315183
H        -1.04652745855856    1.53323782512219    2.43385531333465
Ir        0.42149999999997   -0.81650000000002    0.91329999999984
H         0.87260000000005   -2.23030000000002    1.54049999999993
B         0.46889694438995    0.45884225504140   -0.73193732090268
O         0.09526987327280   -0.00699422330378   -1.98467408789162
C        -0.03600870967668    1.09672326288402   -2.88335091044448
C         0.45676379842210    0.72743897449741   -4.28095411652199
H         1.46827609963863    0.33838384461945   -4.25304808266347
H         0.42160268987980    1.60679498960279   -4.91826186837077
H        -0.19134280014769   -0.03756925835529   -4.69986141188056
C        -1.53695414517147    1.42247869524262   -2.95391579511372
H        -1.73411885500951    2.22899812245658   -3.65223100444368
H        -2.06759787758879    0.53011797803972   -3.27839479650922
H        -1.89932974313082    1.68954407773559   -1.96348343159725
C         0.78673696196867    2.21530562992737   -2.16995785549990
O         0.74870357727018    1.80015131578459   -0.80233150853836
C         2.26211392884624    2.21506294523996   -2.59332325236031
H         2.67387181217828    1.22353252054459   -2.42654466828608
H         2.37589787270482    2.51470848364964   -3.63045314942976
H         2.80632416144246    2.91108830872545   -1.96006421894915
C         0.22303542781294    3.62782138655680   -2.31237325619329
H        -0.76952533506979    3.70563930858418   -1.88191490747838
H         0.87587962983256    4.31924869502282   -1.78648432208042
H         0.18895072712775    3.90387054550194   -3.36249572262118
B         1.55758743073358    0.67912256820486    1.83347210274384
O         2.92145780462551    0.68065972749580    1.98985875429409
C         3.35162344243246    1.95909625282468    2.46000953697473
C         4.52120394748408    1.82118805918897    3.43331597279275
H         4.27118601526557    1.17962137532811    4.27075906411897