15
 energy: -19.058156351379 gnorm: 0.022737225579 xtb: 6.4.0 (f63f532)
C         0.27981000000000    1.20925000000000    0.00104000000000
C         0.99031000000000    0.00299000000000   -0.00119000000000
C         2.49011000000000   -0.00853000000000   -0.01210000000000
C         0.28128000000000   -1.20510000000000    0.00032000000000
C        -1.11464000000000   -1.20590000000000    0.00209000000000
C        -1.81295000000000    0.00006000000000    0.00263000000000
C        -1.11635000000000    1.20692000000000    0.00305000000000
H         0.80825000000000    2.15972000000000    0.00045000000000
H         2.89954000000000    1.00691000000000    0.00409000000000
H         2.85608000000000   -0.50372000000000   -0.91727000000000
H         2.87079000000000   -0.53740000000000    0.86756000000000
H         0.81453000000000   -2.15299000000000   -0.00111000000000
H        -1.65678000000000   -2.14778000000000    0.00183000000000
H        -2.89972000000000   -0.00061000000000    0.00213000000000
H        -1.65978000000000    2.14786000000000    0.00391000000000
15
 energy: -19.059131229143 gnorm: 0.004779784825 xtb: 6.4.0 (f63f532)
C         0.27422027379734    1.20023035069053   -0.00084795959465
C         0.98472288741766    0.00535544348277   -0.00399907954017
C         2.48423049753422   -0.00698831451883   -0.01125624746995
C         0.27697903391202   -1.19308219599336   -0.00177863406538
C        -1.10866468754417   -1.19681001963458    0.00151237413054
C        -1.80650584480987    0.00044715739376    0.00317814037005
C        -1.11251686974052    1.19910908137864    0.00274398843320
H         0.80461453431965    2.14324361082760   -0.00071676507195
H         2.88564428228057    1.00582306567744    0.00466131153572
H         2.85529331250626   -0.50999969948777   -0.90446771303975
H         2.86542401541030   -0.54248126559696    0.85838134559819
H         0.81322983365709   -2.13284627114394   -0.00271863533358
H        -1.64571860482918   -2.13586250122587    0.00267328470464
H        -2.88823403854084   -0.00102807855299    0.00498307570356
H        -1.65223862537053    2.13656963670357    0.00508151363952
15
 energy: -19.059163674750 gnorm: 0.001331503530 xtb: 6.4.0 (f63f532)
C         0.27312201532073    1.19848445096958   -0.00136844223421
C         0.98413919271640    0.00593596023956   -0.00459473966269
C         2.48356983120354   -0.00611550614772   -0.01085829879983
C         0.27579533543614   -1.19085443104252   -0.00263832399016
C        -1.10754193104507   -1.19547139360113    0.00119593453098
C        -1.80614414533375    0.00056908618161    0.00369774602312
C        -1.11184166936834    1.19778844532075    0.00267630838988
H         0.80563964710388    2.13924632369692   -0.00202274256587
H         2.88169357814986    1.00576862289861    0.00461253327119
H         2.85455811614133   -0.51219172780811   -0.90145546876486
H         2.86234642856934   -0.54312444742002    0.85783775114617
H         0.81472427460709   -2.12793095067259   -0.00452740366564
H        -1.64298342578596   -2.13420658984723    0.00259511025415
H        -2.88656636218869   -0.00114103520497    0.00684433556636
H        -1.65003088552649    2.13492319243726    0.00543570050141
15
 energy: -19.059165487340 gnorm: 0.000293966311 xtb: 6.4.0 (f63f532)
C         0.27280671212629    1.19850768076490   -0.00192238372076
C         0.98431411896260    0.00611821142134   -0.00528010081773
C         2.48388503782099   -0.00587414003312   -0.01058176188750
C         0.27534899527199   -1.19083502747031   -0.00355555175511
C        -1.10760662485574   -1.19558522639138    0.00097663754938
C        -1.80674612586851    0.00065457142663    0.00428714194674
C        -1.11211928426952    1.19781295796973    0.00283060955821
H         0.80658814092380    2.13867672967778   -0.00265614946544
H         2.88129481855982    1.00561156946585    0.00406555615508
H         2.85496474977248   -0.51355940894191   -0.90018933143116
H         2.86113423816459   -0.54240745865808    0.85905305521754
H         0.81610071909099   -2.12695869735864   -0.00584341042572
H        -1.64274649605070   -2.13443662143213    0.00227902848251
H        -2.88692099047602   -0.00123399442624    0.00821046094398
H        -1.64981800917307    2.13518885398559    0.00575619965000
15
 energy: -19.059165701070 gnorm: 0.000119925760 xtb: 6.4.0 (f63f532)
C         0.27279150964383    1.19864331054199   -0.00167609969545
C         0.98430324134790    0.00615391702534   -0.00514130377412
C         2.48387241976099   -0.00597069088012   -0.01056523439236
C         0.27530197953734   -1.19098227005181   -0.00369853197767
C        -1.10764581613857   -1.19565591849339    0.00072408171474
C        -1.80677524260842    0.00068258412413    0.00420448568123
C        -1.11222609002067    1.19785617508050    0.00290561930173
H         0.80667173297900    2.13883924695155   -0.00258411456798
H         2.88157317643439    1.00555634816180    0.00301557905350
H         2.85501659942233   -0.51454293695995   -0.89968791022576
H         2.86112504659612   -0.54141205067619    0.85982278486337
H         0.81642077544371   -2.12698436974763   -0.00639712440660
H        -1.64297949007920   -2.13450147001592    0.00195951613891
H        -2.88701394738224   -0.00131933365954    0.00851675490757
H        -1.64995589493651    2.13531745859926    0.00603149737886
