41
 energy: -55.857194502021 gnorm: 0.079412740747 xtb: 6.4.1 (1a32961)
C         1.64070000000000    1.73340000000000   -0.00493000000000
C         3.02118000000000    1.54095000000000   -0.04728000000000
C         3.53847000000000    0.25945000000000   -0.09949000000000
C         2.69288000000000   -0.85233000000000   -0.11660000000000
C         1.29795000000000   -0.67217000000000   -0.03394000000000
N         0.21871000000000   -1.55237000000000    0.04416000000000
O         0.20446000000000   -2.96043000000000   -0.13584000000000
Si        1.25905000000000   -3.91667000000000    0.74389000000000
C         2.64877000000000   -4.44707000000000   -0.44356000000000
C         1.89523000000000   -3.14203000000000    2.33136000000000
C         0.52143000000000   -5.57951000000000    1.29422000000000
C        -0.97464000000000   -0.84299000000000    0.05670000000000
C        -2.31031000000000   -1.27793000000000    0.05010000000000
C        -3.32818000000000   -0.30988000000000    0.03152000000000
C        -3.03426000000000    1.05782000000000    0.01582000000000
C        -4.13520000000000    2.09194000000000   -0.02112000000000
C        -4.55625000000000    2.53726000000000    1.37018000000000
C        -1.69467000000000    1.46798000000000    0.03490000000000
C        -0.65369000000000    0.51394000000000    0.04542000000000
C         0.76706000000000    0.62214000000000    0.01603000000000
H         1.23884000000000    2.74188000000000    0.01780000000000
H         3.68942000000000    2.39787000000000   -0.03941000000000
H         4.61527000000000    0.10700000000000   -0.11341000000000
H         3.15364000000000   -1.82630000000000   -0.13336000000000
H         3.00272000000000   -3.62363000000000   -1.06313000000000
H         2.25740000000000   -5.20413000000000   -1.13067000000000
H         3.49416000000000   -4.87318000000000    0.10452000000000
H         2.22412000000000   -2.10865000000000    2.21715000000000
H         2.73906000000000   -3.71644000000000    2.72539000000000
H         1.10307000000000   -3.14779000000000    3.08774000000000
H         0.14582000000000   -6.14318000000000    0.43679000000000
H        -0.28299000000000   -5.43413000000000    2.01850000000000
H         1.31120000000000   -6.17142000000000    1.77192000000000
H        -2.55609000000000   -2.33613000000000    0.04438000000000
H        -4.36522000000000   -0.64198000000000    0.02039000000000
H        -5.00264000000000    1.69485000000000   -0.56149000000000
H        -3.79740000000000    2.96388000000000   -0.59588000000000
H        -4.95008000000000    1.70033000000000    1.95396000000000
H        -5.34008000000000    3.30126000000000    1.30188000000000
H        -3.71532000000000    2.96931000000000    1.92406000000000
H        -1.44775000000000    2.52773000000000    0.01655000000000
41
 energy: -55.865376070531 gnorm: 0.030532710978 xtb: 6.4.1 (1a32961)
C         1.62756272215763    1.74405524179005   -0.00652355753727
C         2.99383793740241    1.53796597702885   -0.04742058395622
C         3.50536959770038    0.24646716973555   -0.09089696799971
C         2.67047170647448   -0.86061155232676   -0.09072724784212
C         1.29006182689413   -0.66663476224456   -0.02938174915408
N         0.22277187405566   -1.54491337512120    0.04346856441679
O         0.23525702160819   -2.94378198540390   -0.10861999212945
Si        1.28760858943646   -3.92798098673865    0.74900556656691
C         2.66278463072489   -4.44978943164845   -0.46366970593527
C         1.90282986592118   -3.12424176725352    2.34814254070202
C         0.48502702676887   -5.56922057651008    1.28468408606914
C        -0.96686436610423   -0.83812482514528    0.04789331782141
C        -2.28973177666544   -1.27389534938968    0.05071295906898
C        -3.29396107751253   -0.31423213609584    0.03462788161054
C        -3.01370989105165    1.05624847247079    0.01724510235317
C        -4.12264881577189    2.08000321969082   -0.02241739849084
C        -4.55249647744503    2.53082488563576    1.37029344651471
C        -1.69142628137595    1.47643022651282    0.03381982609240
C        -0.66060610557202    0.53547379493724    0.04204423984658
C         0.76568372496455    0.64510085133806    0.00549200208281
H         1.22796708793352    2.74728451684077    0.02239631829423
H         3.66525971814306    2.38657082843318   -0.04592513768808
H         4.57674601201295    0.09288255761772   -0.12665206194242
H         3.11756742871204   -1.83896876818533   -0.12834649017401
H         3.03134313380331   -3.64051737808630   -1.08666431734108
H         2.28196757470232   -5.21328942380251   -1.13915042022591
H         3.50449983892132   -4.87630473180849    0.07305412980456
H         2.23272699965463   -2.09599558056788    2.22794430562926
H         2.73816145936998   -3.69437973216686    2.74613428637044
H         1.11849843437062   -3.12768497025865    3.10433471603118
H         0.10529150386948   -6.14226506152327    0.44476742769020
H        -0.31457537187894   -5.44853474138813    2.00902384893101
H         1.26404769787018   -6.16478289395671    1.75540437251799
H        -2.53271951611784   -2.32699361131373    0.04747522257847
H        -4.32555021200695   -0.64422574745220    0.01995927901580
H        -4.98938952199980    1.66957099986053   -0.54987594395580
H        -3.78439462915860    2.95404938383539   -0.58852787248758
H        -4.93991874737178    1.69315313212307    1.94898076019406
H        -5.33449916513687    3.28878151818102    1.30093530603422
H        -3.71164302208875    2.95996203332799    1.91520383423782
H        -1.45336843621395    2.53119457902841    0.01697610638515
41
 energy: -55.867880249778 gnorm: 0.012178995407 xtb: 6.4.1 (1a32961)
C         1.61880351419600    1.75590509217782   -0.00671120707032
C         2.97875036569276    1.53851515439544   -0.04908065668272
C         3.48418674568403    0.24031383010507   -0.08997396282531
C         2.65377875060100   -0.86335182764816   -0.07916311042502
C         1.28297925787566   -0.65810758163036   -0.02531342767220
N         0.22743283941632   -1.53361839536599    0.04403094400678
O         0.26708546794923   -2.92023780464096   -0.07691419625975
Si        1.31537520722467   -3.93566764141149    0.75723722679882
C         2.67785126831039   -4.46479642088594   -0.47290011960752
C         1.92141583198775   -3.11518010772201    2.36466930055151
C         0.44932230586518   -5.55441926446649    1.26979889772821
C        -0.95888506075630   -0.83410867839342    0.04718153274788
C        -2.27374009826386   -1.27342659165961    0.05490579961394
C        -3.27276850106309   -0.31997896172986    0.03628071588705
C        -3.00262324175425    1.05324989171684    0.01697975953847
C        -4.11884449464533    2.06503767157625   -0.02507749218802
C        -4.54592299814064    2.51721050646772    1.37324164862716
C        -1.68940354513978    1.48311936296326    0.02854580504105
C        -0.66469592961745    0.55045119545940    0.03847222653632
C         0.76423457707945    0.66408973211412    0.00214317536527
H         1.21847662514075    2.75671059962529    0.02091435628997
H         3.65704077316442    2.37805809416556   -0.05257362996721
H         4.55215398064000    0.08700530708587   -0.13036932711519
H         3.08433679107547   -1.84820364611317   -0.11453788348156
H         3.04547214829446   -3.65978741093462   -1.09979891806639
H         2.29346270651285   -5.22990763150821   -1.14061120066027
H         3.52701459049276   -4.89130724123185    0.04901177169369
H         2.24562797565324   -2.08919088692917    2.22720090320119
H         2.75310243602730   -3.67283318425795    2.78173843419014
H         1.13081102271449   -3.10968572337731    3.10996779978149
H         0.05550491087086   -6.10882322968844    0.42685666921616
H        -0.35149999177004   -5.41690459847278    1.98540894103296
H         1.20268066368964   -6.17936408878089    1.74191104099943
H        -2.51012042232837   -2.32544914887962    0.05392221535046
H        -4.30202807456761   -0.64711127140559    0.02442753056428
H        -4.98281496067451    1.64124360102555   -0.54221775747830
H        -3.78278182397765    2.93912496966736   -0.58775971389972
H        -4.92625406696861    1.67702800904457    1.94880550676173
H        -5.32824743959734    3.26951903553053    1.30089951641181
H        -3.70290051624195    2.94682777707475    1.90883843732540
H        -1.45752959065184    2.53670150693851    0.01483244813831
41
 energy: -55.868877823789 gnorm: 0.011473318801 xtb: 6.4.1 (1a32961)
C         1.61871685334164    1.76565866525060   -0.00911948917031
C         2.97872939258541    1.54336243576682   -0.05185782750106
C         3.48244858217538    0.24367871858302   -0.08909124338705
C         2.65271534296938   -0.85944043073525   -0.07275350379797
C         1.28366961572458   -0.64951016925309   -0.02080558967191
N         0.23458484942125   -1.52570081885149    0.04197134704768
O         0.29284268880728   -2.90534885867081   -0.05440359318227
Si        1.33661331557514   -3.93894457642773    0.76673762126983
C         2.68884102887888   -4.47897364878946   -0.47379600643232
C         1.94162919706502   -3.11151585627448    2.37630561132611
C         0.41090118622716   -5.53420325232945    1.25494035526457
C        -0.95147588658452   -0.83309191623544    0.04858113848531
C        -2.26412456193535   -1.27755511509997    0.05899236802763
C        -3.26562171835914   -0.32756427311956    0.03864548388844
C        -3.00103316944809    1.04682437438664    0.01438750598095
C        -4.12255001113649    2.05014184266487   -0.02670493652595
C        -4.54177918944848    2.50143851412638    1.37612878811512
C        -1.68978633352514    1.48426573895706    0.02432174261508
C        -0.66358741945041    0.55520267798347    0.03674458025456
C         0.76519805177011    0.67433393693846    0.00171497570572
H         1.21737576491518    2.76645738115016    0.01733110166062
H         3.66185040762708    2.37818244515077   -0.05971080672653
H         4.54985487328642    0.09199644749548   -0.13298122109972
H         3.07239250314046   -1.84910261892900   -0.10419588551792
H         3.05257648538786   -3.67713995415670   -1.10812333344189
H         2.29667885550269   -5.24676173256475   -1.13432059957118
H         3.54441963736134   -4.90493541791779    0.03960169663607
H         2.26448878616096   -2.08671180320314    2.22557948670963
H         2.77072036294088   -3.66018102599840    2.81037464485528
H         1.14326986510914   -3.09503668730417    3.11327080314157
H         0.00200831897101   -6.06097391232659    0.40005829358325
H        -0.39380276997575   -5.37075528586811    1.96184027431072
H         1.13315233045112   -6.19733004979013    1.72873728031969
H        -2.49376428164499   -2.33114043525292    0.06247890535732
H        -4.29463521366981   -0.65430759725027    0.02954797492426
H        -4.98611862290283    1.61792560629252   -0.53543964249821
H        -3.79413173436845    2.92487336876371   -0.59139644675671
H        -4.91302749592575    1.65826043133236    1.95268798456411
H        -5.32696427993625    3.25011827417895    1.30774008014666
H        -3.69477572671577    2.93296493144600    1.90317935194002
H        -1.46265988036797    2.53918964588151    0.00802072915072
41
 energy: -55.869809105453 gnorm: 0.009864884469 xtb: 6.4.1 (1a32961)
C         1.62321535483903    1.77660645584932   -0.01313706124105
C         2.98460457968443    1.55189021015991   -0.05584795549233
C         3.48959561046194    0.25300672543702   -0.08934499876000
C         2.66010401496016   -0.85038774241928   -0.07040142647202
C         1.29001752814265   -0.63766453416172   -0.01742832857391
N         0.24596061779198   -1.51734134331518    0.03444381728444
O         0.32137819694850   -2.89178677983446   -0.02911160813856
Si        1.35788870612559   -3.94063406646495    0.78155561694256
C         2.69981257200623   -4.49534804960676   -0.46587215377067
C         1.96953406756554   -3.11108823743022    2.38960246554416
C         0.35482862319632   -5.50064581537909    1.23379245701910
C        -0.94152213743142   -0.83255510607064    0.04962746823823
C        -2.25282082492167   -1.28505861285034    0.06319962004193
C        -3.26037306873273   -0.33995396042419    0.04102454779091
C        -3.00196800815937    1.03523518569231    0.00924121422044
C        -4.13069419541671    2.02878673001391   -0.02745401556475
C        -4.53590572722880    2.47809426817029    1.38080106403758
C        -1.69166713131708    1.48172796560590    0.01722042396789
C        -0.65927366102590    0.55711055391109    0.03362994553298
C         0.76838164300585    0.68388782084999    0.00167491078737
H         1.22151388402369    2.77819294839481    0.00985140992551
H         3.67127791355327    2.38391998384887   -0.06802820491984
H         4.55760181073700    0.10403885585472   -0.13311344096480
H         3.06976957749756   -1.84474664776674   -0.09677073848372
H         3.05531291445518   -3.69668863784087   -1.11073242115511
H         2.29821219076039   -5.26770402962831   -1.11694671736937
H         3.56325837117383   -4.91843564700842    0.03894589809687
H         2.29593640212516   -2.08866315123760    2.22458562697991
H         2.79456760861584   -3.65299528140585    2.83983420661302
H         1.16415163314510   -3.07874115314989    3.11981777552116
H        -0.07310671891348   -5.98486117021366    0.35949133887962
H        -0.45408176188725   -5.29993910653023    1.92959760788659
H         1.03042715251188   -6.21651799486031    1.70765954440396
H        -2.47349177902894   -2.34130857436097    0.07347019891669
H        -4.28913093142203   -0.66920378934020    0.03677528956558
H        -4.99579583259796    1.58748700393694   -0.52493323503055
H        -3.81680307670500    2.90493813576801   -0.59830546950143
H        -4.89371691753632    1.63138346425451    1.96134873244612
H        -5.32654521832507    3.22227007888315    1.32278420806524
H        -3.68332745075734    2.91341998472231    1.89666087757197
H        -1.47128653191985    2.53892305994697   -0.00398849084183
41
 energy: -55.870447101929 gnorm: 0.008537322619 xtb: 6.4.1 (1a32961)
C         1.62916997374587    1.78500810759376   -0.01883044501904
C         2.99157270097666    1.56152101462104   -0.05962007902281
C         3.50039749294932    0.26451460710818   -0.09021673986172
C         2.67159880875740   -0.83965896148084   -0.07327064904811
C         1.29960417320511   -0.62709209252779   -0.01894066035995
N         0.25765977808396   -1.51115477576648    0.02203211154138
O         0.33861840997773   -2.88409937910703   -0.01362340234928
Si        1.36578471272650   -3.93968012436132    0.79441828815504
C         2.70474542417207   -4.50753131051157   -0.44971589742007
C         1.99166890353795   -3.11567598138456    2.39871490025220
C         0.30096559326384   -5.46522206986095    1.21467020073920
C        -0.93193151484184   -0.83143090045838    0.04714834798293
C        -2.24169990568635   -1.29217325386138    0.06396182724468
C        -3.25546877988220   -0.35262538555302    0.04221045739778
C        -3.00267457192502    1.02321304923303    0.00467953758997
C        -4.13850185632828    2.00868795076038   -0.02561052852629
C        -4.52972178717101    2.45572223722520    1.38668394965141
C        -1.69360955282491    1.47720225293819    0.01018039679580
C        -0.65375427737823    0.55772116323771    0.02877410327552
C         0.77286295331177    0.69056818238394   -0.00110085324009
H         1.22793248245038    2.78733759978151    0.00125608959666
H         3.67806728196152    2.39427340636102   -0.07318860988554
H         4.56950099191715    0.11819285506703   -0.13114649445528
H         3.07741895492787   -1.83589277382341   -0.09762702767240
H         3.05318715712096   -3.71199091420209   -1.10329404840657
H         2.30021289627485   -5.28553093937633   -1.09302510519656
H         3.57268918991853   -4.92498787751328    0.05256096827855
H         2.32871179987186   -2.09730608411088    2.22541971985677
H         2.81147946159592   -3.66039677210397    2.85389411196721
H         1.18608792993982   -3.06785912806038    3.12877303077760
H        -0.13710377252889   -5.91359578391513    0.32505899764699
H        -0.50861482958436   -5.23642449030116    1.90238318328606
H         0.93653135723044   -6.21733386432579    1.68561816208549
H        -2.45470178287629   -2.35047453786163    0.07996526405904
H        -4.28320926140112   -0.68709483657055    0.04295635733269
H        -5.00593670763178    1.55988275210596   -0.51296507125617
H        -3.83965970079079    2.88618458013597   -0.60353687917551
H        -4.87494417357997    1.60636047580544    1.97195580665500
H        -5.32608182255438    3.19547977256398    1.34018467108715
H        -3.67311547126011    2.89581740581472    1.89295590518446
H        -1.47989865967169    2.53619482430108   -0.01552389754437
41
 energy: -55.870986635996 gnorm: 0.006828200308 xtb: 6.4.1 (1a32961)
C         1.63494583572753    1.79297300892007   -0.02640868886331
C         2.99780751562685    1.57340457550251   -0.06361574285024
C         3.51211371756766    0.27851248452043   -0.09248606064442
C         2.68501270939089   -0.82710864674401   -0.08009980871598
C         1.31144124936206   -0.61698752589589   -0.02614950503465
N         0.27047742444584   -1.50539099206536    0.00503313705029
O         0.34703709154242   -2.87902911154123   -0.00706015070884
Si        1.36231034719273   -3.93567731867220    0.80442347122044
C         2.70484474854058   -4.51779673587672   -0.42690041173328
C         2.00895676456142   -3.12564433226760    2.40504790312037
C         0.24903959183566   -5.42702128202384    1.19834425807657
C        -0.92149532139115   -0.82883583185062    0.03986505038106
C        -2.22863363089719   -1.29861805159959    0.06034821976451
C        -3.24844090729662   -0.36571479545561    0.04198621135831
C        -3.00194777626039    1.01107225825640    0.00130320866855
C        -4.14527364717030    1.98883124117815   -0.02058647184714
C        -4.52327594536806    2.43342388614991    1.39470384599860
C        -1.69530242795369    1.47238762722816    0.00287618589028
C        -0.64763140995676    0.55938348911422    0.02085027933926
C         0.77842942910708    0.69682054682796   -0.00825518336115
H         1.23417462526943    2.79559590725643   -0.00895720580217
H         3.68091621951147    2.40958533798811   -0.07579834700754
H         4.58230560895350    0.13495807982883   -0.12869889107053
H         3.09248125346260   -1.82280161934017   -0.10498240428037
H         3.04948219048393   -3.72676329837518   -1.08795293515976
H         2.30312278114263   -5.30329817694826   -1.06289638656473
H         3.57353025002846   -4.92653367497954    0.08023020863573
H         2.36372397079425   -2.11322315430892    2.22935139435847
H         2.82195372534993   -3.68387739377281    2.85517517544966
H         1.20923058169536   -3.06277378554628    3.14036783450573
H        -0.19205598582109   -5.84498367226632    0.29731593942629
H        -0.55980622843238   -5.17522557868991    1.87821634844852
H         0.84611637314688   -6.20722324948613    1.66592632278388
H        -2.43487804295158   -2.35817386067383    0.07956825574074
H        -4.27410812513093   -0.70766330484564    0.04791650996828
H        -5.01485460856254    1.53259481982685   -0.49835184443665
H        -3.86117101894339    2.86741062525563   -0.60522455039995
H        -4.85617690664075    1.58188639958149    1.98457186519146
H        -5.32550651014376    3.16810071806433    1.35946761126757
H        -3.66425256400701    2.87932815240288    1.89232300733437
H        -1.48880294781131    2.53274623532358   -0.02556765549846
41
 energy: -55.871402763548 gnorm: 0.005726806424 xtb: 6.4.1 (1a32961)
C         1.63893449603491    1.80290699726024   -0.03658998375111
C         3.00197900229970    1.58852311832333   -0.06918877439189
C         3.52224961259664    0.29545907073700   -0.09701946568212
C         2.69836402818899   -0.81252238188871   -0.08903244465673
C         1.32442392965091   -0.60633900537627   -0.03790446401991
N         0.28565545061938   -1.49837911065550   -0.01356270250726
O         0.35426375648285   -2.87292198111506   -0.00610199200988
Si        1.35471951178530   -3.92993235240015    0.81267918651957
C         2.70485413373341   -4.52828016858333   -0.40032636079531
C         2.02407359860326   -3.13899062065300    2.41169096161809
C         0.19352095921570   -5.38680228565641    1.18439794497908
C        -0.90878266992660   -0.82501460959466    0.02775699423468
C        -2.21154974641461   -1.30528011001433    0.05203440188038
C        -3.23749845800687   -0.38019632793501    0.03985688134625
C        -2.99932147503407    0.99828849000869   -0.00061972808264
C        -4.15083063161823    1.96758193149827   -0.01232207927741
C        -4.51678941484817    2.40980751633177    1.40586438215533
C        -1.69657115169530    1.46839894469975   -0.00501110590210
C        -0.64141885230440    0.56346447706432    0.00939593767235
C         0.78476501780092    0.70503080039976   -0.02027792036452
H         1.23727717188972    2.80493572589862   -0.02119345164910
H         3.67998962001674    2.42917823214814   -0.07816988639432
H         4.59312229954498    0.15528323616291   -0.12853075061488
H         3.11091232035405   -1.80638889779127   -0.11560416459140
H         3.04994640867012   -3.74409926147007   -1.06872514408389
H         2.31090885766494   -5.32349598879288   -1.02856402628059
H         3.57117393175202   -4.92582925105637    0.11840549686265
H         2.40261024978583   -2.13460853141143    2.23712736067798
H         2.82782085574728   -3.72007197561666    2.85072067043370
H         1.23369851368919   -3.05986051218527    3.15512418293536
H        -0.25524584591962   -5.77254142248684    0.27314861261252
H        -0.61234222772267   -5.11073449420362    1.85773477747825
H         0.74989489625796   -6.19890907588789    1.64690645364864
H        -2.40986873125448   -2.36597204320415    0.07158299025378
H        -4.26018377748627   -0.73061669646120    0.05116589246450
H        -5.02173156851092    1.50327907102864   -0.48050562978777
H        -3.88049429773926    2.84723324627801   -0.60189272573923
H        -4.83710734052826    1.55621913330573    1.99977458121617
H        -5.32481631857084    3.13845066190948    1.38024941494792
H        -3.65628236769313    2.86237959209379    1.89463546915764
H        -1.49848374711074    2.53001685929199   -0.03388979251310
41
 energy: -55.871667803710 gnorm: 0.004241822496 xtb: 6.4.1 (1a32961)
C         1.64101536222839    1.81446230669886   -0.04761714318483
C         3.00477960947285    1.60524973246254   -0.07619793341048
C         3.53006440112649    0.31384654873671   -0.10328471631228
C         2.70999451959304   -0.79721942115403   -0.09791963193387
C         1.33623921864365   -0.59577928482451   -0.05100866314359
N         0.30062803730161   -1.49026428430395   -0.02984280877992
O         0.36212984827943   -2.86475767920453   -0.01291672867334
Si        1.34374623285355   -3.92566021206428    0.81707285703643
C         2.70563120502372   -4.53984328767899   -0.37400595196796
C         2.03343745097074   -3.15490627568557    2.41710483076092
C         0.13982964967071   -5.35154336982116    1.17311999880598
C        -0.89588121879179   -0.82052471406126    0.01357903323452
C        -2.19377600480706   -1.31102461071423    0.04152757829107
C        -3.22560415994496   -0.39333582103110    0.03614277144561
C        -2.99593540171936    0.98695520764507   -0.00158139536168
C        -4.15470977808587    1.94811841734496   -0.00254617823503
C        -4.51080135533686    2.38773306878081    1.41880917088702
C        -1.69706270847945    1.46625024787296   -0.01251816950592
C        -0.63570046396358    0.56906843759406   -0.00361724134607
C         0.79091157480612    0.71451123750706   -0.03410435750599
H         1.23658258975592    2.81521127180156   -0.03365034873055
H         3.67800285478184    2.44976534350387   -0.08198442527623
H         4.60129723500097    0.17739848483069   -0.13157426057432
H         3.12871382649211   -1.78900373927234   -0.12520405329959
H         3.05511661000984   -3.76346363188546   -1.04885205335977
H         2.32298332214543   -5.34544834687156   -0.99531997401174
H         3.56762636901817   -4.92577411325840    0.16056800745823
H         2.43870123344388   -2.16004847344664    2.24581623197858
H         2.82548768583390   -3.76187344500256    2.84548519406107
H         1.25238371859907   -3.05912491841728    3.16801180451108
H        -0.31553144896268   -5.71310467871443    0.25666472152851
H        -0.65922572815087   -5.05450739892817    1.84496149243718
H         0.66574252824567   -6.18230532176470    1.62866795873521
H        -2.38315305027030   -2.37311030862175    0.06044252168121
H        -4.24540017232726   -0.75103301863378    0.05205676032511
H        -5.02609149974080    1.47659484216333   -0.46228284390434
H        -3.89585291277699    2.82915489375595   -0.59456945849390
H        -4.81901073681075    1.53190115443717    2.01573617699919
H        -5.32469802243382    3.10973822799529    1.40038599450264
H        -3.64956230928884    2.84714780705100    1.89944141706678
H        -1.50720811140549    2.52919912517926   -0.03977618473536
41
 energy: -55.871796145081 gnorm: 0.004179934002 xtb: 6.4.1 (1a32961)
C         1.64136740445404    1.82518765308108   -0.05727825760739
C         3.00598758202969    1.61966278046668   -0.08363566964637
C         3.53456084989329    0.32959404915458   -0.10941549864994
C         2.71796654468643   -0.78424734737828   -0.10422995076707
C         1.34442336059520   -0.58662713540116   -0.06108821378438
N         0.31207905519886   -1.48277899422982   -0.04010885249927
O         0.37308727612480   -2.85645516143092   -0.02362105824117
Si        1.33666194804715   -3.92362210825796    0.81869357534496
C         2.70806489465769   -4.55110929530322   -0.35447752870379
C         2.03642229371131   -3.16781309478483    2.42173553440467
C         0.10397117437913   -5.32781069347846    1.16678135798404
C        -0.88614680859029   -0.81679215820564    0.00188042353471
C        -2.18052910160711   -1.31445155085264    0.03224916350411
C        -3.21640109853331   -0.40192195728078    0.03212498116208
C        -2.99302248038924    0.97946617532391   -0.00245042833345
C        -4.15680290646390    1.93436756092806    0.00569299403125
C        -4.50588812140807    2.37079409777802    1.43028510383910
C        -1.69691576697290    1.46583750693848   -0.01811290124317
C        -0.63162189138829    0.57417317811662   -0.01433062385130
C         0.79528107951240    0.72328457325108   -0.04537257651130
H         1.23351981927354    2.82448194266943   -0.04392290306379
H         3.67627929255965    2.46628768547449   -0.08812444790730
H         4.60599195521320    0.19635981374437   -0.13650771414894
H         3.14072874948848   -1.77477436567721   -0.13069630025948
H         3.06268974337490   -3.78118325242978   -1.03397434405706
H         2.33497480244875   -5.36510872878169   -0.97018149721168
H         3.56561657039556   -4.92787268448369    0.19402953809445
H         2.46321346965794   -2.18164718530058    2.25255280446232
H         2.81659770168584   -3.79385579895851    2.84576415440843
H         1.26007172168926   -3.05836240417249    3.17509935520639
H        -0.36256437442055   -5.66821561610934    0.24634403438583
H        -0.68898613119322   -5.01325938526711    1.83845155188651
H         0.60388786594654   -6.18166644836783    1.61754983257266
H        -2.36307752038606   -2.37756231696642    0.04919552509437
H        -4.23429610378494   -0.76398184385338    0.05094301270175
H        -5.02855227594730    1.45797619550683   -0.44770537055589
H        -3.90644392089044    2.81733608844189   -0.58660537056392
H        -4.80364049699300    1.51240918064532    2.02882457949455
H        -5.32502270309116    3.08680037677581    1.41731219536882
H        -3.64446980745964    2.83593119607343    1.90467400925215
H        -1.51322364550386    2.52981947260218   -0.04312421912696
41
 energy: -55.871910108777 gnorm: 0.004221599829 xtb: 6.4.1 (1a32961)
C         1.64071990176833    1.83646860864237   -0.06688112107491
C         3.00654073943709    1.63483371240711   -0.09256201485615
C         3.53794614598870    0.34624122315917   -0.11673755511694
C         2.72505743316117   -0.77079190685512   -0.11014957705283
C         1.35144168597494   -0.57760205232431   -0.07059313531006
N         0.32224228758309   -1.47526362294787   -0.04684831335088
O         0.38603484925014   -2.84811103909414   -0.04454176108223
Si        1.32650811618466   -3.92417499145762    0.81617770497172
C         2.70933334817954   -4.56434270901155   -0.33701757628200
C         2.02989293526348   -3.18172133898717    2.42412590583076
C         0.07747424421767   -5.31247775266927    1.16390158173350
C        -0.87771262925888   -0.81301506905431   -0.00937591898129
C        -2.16949709173310   -1.31583887035344    0.02180821356141
C        -3.20844909176742   -0.40699980233785    0.02696285562244
C        -2.98995092553586    0.97504113759097   -0.00265321834851
C        -4.15719824868508    1.92492971305238    0.01452271600195
C        -4.50139929441450    2.35665662003955    1.44243186430080
C        -1.69576561935212    1.46692884560881   -0.02195159789429
C        -0.62785691764475    0.57926537099550   -0.02404309920012
C         0.79918059365308    0.73204203839992   -0.05569454415892
H         1.22841845013527    2.83399284462757   -0.05384767232351
H         3.67434222503553    2.48318589397664   -0.09710783826470
H         4.60962627403186    0.21638990934935   -0.14343073762502
H         3.15196795721906   -1.76001414444645   -0.13436843871989
H         3.07225336244737   -3.80105733610890   -1.01968056580311