      -----------------------------------------------------------      
     |                   =====================                   |     
     |                           x T B                           |     
     |                   =====================                   |     
     |                         S. Grimme                         |     
     |          Mulliken Center for Theoretical Chemistry        |     
     |                    University of Bonn                     |     
      -----------------------------------------------------------      

   * xtb version 6.4.1 (1a32961) compiled by 'knkr256@seskscpg007.prim.scp' on 2021-10-19

   xtb is free software: you can redistribute it and/or modify it under
   the terms of the GNU Lesser General Public License as published by
   the Free Software Foundation, either version 3 of the License, or
   (at your option) any later version.
   
   xtb is distributed in the hope that it will be useful,
   but WITHOUT ANY WARRANTY; without even the implied warranty of
   MERCHANTABILITY or FITNESS FOR A PARTICULAR PURPOSE.  See the
   GNU Lesser General Public License for more details.
   
   Cite this work as:
   * C. Bannwarth, E. Caldeweyher, S. Ehlert, A. Hansen, P. Pracht,
     J. Seibert, S. Spicher, S. Grimme, WIREs Comput. Mol. Sci., 2020, 11,
     e01493. DOI: 10.1002/wcms.1493
   
   for GFN2-xTB:
   * C. Bannwarth, S. Ehlert and S. Grimme., J. Chem. Theory Comput., 2019,
     15, 1652-1671. DOI: 10.1021/acs.jctc.8b01176
   for GFN1-xTB:
   * S. Grimme, C. Bannwarth, P. Shushkov, J. Chem. Theory Comput., 2017,
     13, 1989-2009. DOI: 10.1021/acs.jctc.7b00118
   for GFN0-xTB:
   * P. Pracht, E. Caldeweyher, S. Ehlert, S. Grimme, ChemRxiv, 2019, preprint.
     DOI: 10.26434/chemrxiv.8326202.v1
   for GFN-FF:
   * S. Spicher and S. Grimme, Angew. Chem. Int. Ed., 2020, 59, 15665-15673.
     DOI: 10.1002/anie.202004239
   
   for ALPB and GBSA implicit solvation:
   * S. Ehlert, M. Stahn, S. Spicher, S. Grimme, J. Chem. Theory Comput.,
     2021, 17, 4250-4261. DOI: 10.1021/acs.jctc.1c00471
   
   for DFT-D4:
   * E. Caldeweyher, C. Bannwarth and S. Grimme, J. Chem. Phys., 2017,
     147, 034112. DOI: 10.1063/1.4993215
   * E. Caldeweyher, S. Ehlert, A. Hansen, H. Neugebauer, S. Spicher,
     C. Bannwarth and S. Grimme, J. Chem. Phys., 2019, 150, 154122.
     DOI: 10.1063/1.5090222
   * E. Caldeweyher, J.-M. Mewes, S. Ehlert and S. Grimme, Phys. Chem. Chem. Phys.
     2020, 22, 8499-8512. DOI: 10.1039/D0CP00502A
   
   for sTDA-xTB:
   * S. Grimme and C. Bannwarth, J. Chem. Phys., 2016, 145, 054103.
     DOI: 10.1063/1.4959605
   
   in the mass-spec context:
   * V. Asgeirsson, C. Bauer and S. Grimme, Chem. Sci., 2017, 8, 4879.
     DOI: 10.1039/c7sc00601b
   * J. Koopman and S. Grimme, ACS Omega 2019, 4, 12, 15120-15133.
     DOI: 10.1021/acsomega.9b02011
   
   for metadynamics refer to:
   * S. Grimme, J. Chem. Theory Comput., 2019, 155, 2847-2862
     DOI: 10.1021/acs.jctc.9b00143
   
   for SPH calculations refer to:
   * S. Spicher and S. Grimme, J. Chem. Theory Comput., 2021, 17, 1701-1714
     DOI: 10.1021/acs.jctc.0c01306
   
   with help from (in alphabetical order)
   P. Atkinson, C. Bannwarth, F. Bohle, G. Brandenburg, E. Caldeweyher
   M. Checinski, S. Dohm, S. Ehlert, S. Ehrlich, I. Gerasimov, J. Koopman
   C. Lavigne, S. Lehtola, F. März, M. Müller, F. Musil, H. Neugebauer
   J. Pisarek, C. Plett, P. Pracht, J. Seibert, P. Shushkov, S. Spicher
   M. Stahn, M. Steiner, T. Strunk, J. Stückrath, T. Rose, and J. Unsleber
   
 * started run on 2022/01/14 at 14:16:51.807     

           -------------------------------------------------
          |                Calculation Setup                |
           -------------------------------------------------

          program call               : xtb xtbopt.xyz --sp --alpb thf -P 6
          hostname                   : seskscpg007.prim.scp
          coordinate file            : xtbopt.xyz
          omp threads                :                     6
          number of atoms            :                   100
          number of electrons        :                   264
          charge                     :                     0
          spin                       :                   0.0
          first test random number   :      0.16462141321638

   ID    Z sym.   atoms
    1    7 N      1, 11, 95
    2    6 C      2-6, 10, 12-15, 23, 24, 28, 32, 34, 38, 44, 45, 49, 53, 55,
                  59, 65, 66, 70, 74, 76, 80, 86-89, 91, 93, 96, 97
    3    1 H      7-9, 16-18, 20, 25-27, 29-31, 35-37, 39-41, 46-48, 50-52,
                  56-58, 60-62, 67-69, 71-73, 77-79, 81-85, 90, 92, 94, 98-100
    4   77 Ir     19
    5    5 B      21, 42, 63
    6    8 O      22, 33, 43, 54, 64, 75

molecular fragmentation (1/2 indicates fragments):
111111111111111111111111111111111111111111111111111111111111111111111111
1111111111111222222222222222
# atoms in fragment 1/2:    85    15
 fragment masses (1/2) :      730.32      116.14
CMA distance (Bohr)    :  10.119
constraining FC (au)   :  0.0500

           -------------------------------------------------
          |                 G F N 2 - x T B                 |
           -------------------------------------------------

        Reference                      10.1021/acs.jctc.8b01176
      * Hamiltonian:
        H0-scaling (s, p, d)           1.850000    2.230000    2.230000
        zeta-weighting                 0.500000
      * Dispersion:
        s8                             2.700000
        a1                             0.520000
        a2                             5.000000
        s9                             5.000000
      * Repulsion:
        kExp                           1.500000    1.000000
        rExp                           1.000000
      * Coulomb:
        alpha                          2.000000
        third order                    shell-resolved
        anisotropic                    true
        a3                             3.000000
        a5                             4.000000
        cn-shift                       1.200000
        cn-exp                         4.000000
        max-rad                        5.000000

      * Solvation model:               ALPB
        Solvent                        thf
        Parameter file                 internal GFN2-xTB/ALPB
        Dielectric constant                7.6000E+00
        Reference state                gsolv [1 M gas/solution]
        Free energy shift                  5.3248E-03 Eh       3.3414E+00 kcal/mol
        Temperature                        2.9815E+02 K
        Density                            8.8300E-01 kg/L
        Solvent mass                       7.2106E+01 g/mol
        Interaction kernel             P16
        Born radius scaling (c1)           1.7311E+00
        Born radii integrator          GBOBC
        Born offset                        0.0000E+00 a0       0.0000E+00 AA
        H-bond correction              true
        Ion screening                  false
        Surface tension                    1.0000E-05 Eh       1.5569E+01 dyn/cm
        Grid points                               230 per atom
q/qsh data taken from xtbrestart
CAMM data taken from xtbrestart

          ...................................................
          :                      SETUP                      :
          :.................................................:
          :  # basis functions                 253          :
          :  # atomic orbitals                 252          :
          :  # shells                          150          :
          :  # electrons                       264          :
          :  max. iterations                   250          :
          :  Hamiltonian                  GFN2-xTB          :
          :  restarted?                       true          :
          :  GBSA solvation                   true          :
          :  PC potential                    false          :
          :  electronic temp.          300.0000000     K    :
          :  accuracy                    1.0000000          :
          :  -> integral cutoff          0.2500000E+02      :
          :  -> integral neglect         0.1000000E-07      :
          :  -> SCF convergence          0.1000000E-05 Eh   :
          :  -> wf. convergence          0.1000000E-03 e    :
          :  Broyden damping             0.4000000          :
          ...................................................

 iter      E             dE          RMSdq      gap      omega  full diag
   1   -146.0757886 -0.146076E+03  0.818E-05    0.88       0.0  T
   2   -146.0757886  0.952156E-09  0.112E-04    0.88      89.1  T
   3   -146.0757886 -0.931323E-09  0.587E-05    0.88     170.4  T

   *** convergence criteria satisfied after 3 iterations ***

         #    Occupation            Energy/Eh            Energy/eV
      -------------------------------------------------------------
         1        2.0000           -0.6724513             -18.2983
       ...           ...                  ...                  ...
       126        2.0000           -0.3538227              -9.6280
       127        2.0000           -0.3422428              -9.3129
       128        2.0000           -0.3267057              -8.8901
       129        2.0000           -0.3169263              -8.6240
       130        2.0000           -0.3147108              -8.5637
       131        2.0000           -0.3070346              -8.3548
       132        2.0000           -0.3046609              -8.2902 (HOMO)
       133                         -0.2724174              -7.4129 (LUMO)
       134                         -0.2444858              -6.6528
       135                         -0.2419927              -6.5850
       136                         -0.2148461              -5.8463
       137                         -0.2011208              -5.4728
       ...                                ...                  ...
       252                          3.7569127             102.2308
      -------------------------------------------------------------
                  HL-Gap            0.0322435 Eh            0.8774 eV
             Fermi-level           -0.2885016 Eh           -7.8505 eV

 SCC (total)                   0 d,  0 h,  0 min,  0.091 sec
 SCC setup                      ...        0 min,  0.002 sec (  2.531%)
 Dispersion                     ...        0 min,  0.002 sec (  2.728%)
 classical contributions        ...        0 min,  0.000 sec (  0.162%)
 integral evaluation            ...        0 min,  0.011 sec ( 11.864%)
 iterations                     ...        0 min,  0.036 sec ( 39.954%)
 molecular gradient             ...        0 min,  0.038 sec ( 41.937%)
 printout                       ...        0 min,  0.001 sec (  0.765%)

         :::::::::::::::::::::::::::::::::::::::::::::::::::::
         ::                     SUMMARY                     ::
         :::::::::::::::::::::::::::::::::::::::::::::::::::::
         :: total energy            -144.166786500688 Eh    ::
         :: total w/o Gsasa/hb      -144.125072473838 Eh    ::
         :: gradient norm              0.033864347980 Eh/a0 ::
         :: HOMO-LUMO gap              0.877390941365 eV    ::
         ::.................................................::
         :: SCC energy              -146.075788554318 Eh    ::
         :: -> isotropic ES            0.240137718839 Eh    ::
         :: -> anisotropic ES          0.017088062023 Eh    ::
         :: -> anisotropic XC          0.047918459481 Eh    ::
         :: -> dispersion             -0.139417810276 Eh    ::
         :: -> Gsolv                  -0.052114422813 Eh    ::
         ::    -> Gelec               -0.010400395963 Eh    ::
         ::    -> Gsasa               -0.043706641127 Eh    ::
         ::    -> Ghb                 -0.003332201168 Eh    ::
         ::    -> Gshift               0.005324815444 Eh    ::
         :: repulsion energy           1.901057404796 Eh    ::
         :: add. restraining           0.000000000000 Eh    ::
         :: total charge               0.000000000004 e     ::
         :::::::::::::::::::::::::::::::::::::::::::::::::::::

           -------------------------------------------------
          |                Property Printout                |
           -------------------------------------------------

    * Orbital Energies and Occupations

         #    Occupation            Energy/Eh            Energy/eV
      -------------------------------------------------------------
         1        2.0000           -0.6724513             -18.2983
       ...           ...                  ...                  ...
       120        2.0000           -0.3882044             -10.5636
       121        2.0000           -0.3847244             -10.4689
       122        2.0000           -0.3844378             -10.4611
       123        2.0000           -0.3811336             -10.3712
       124        2.0000           -0.3803747             -10.3505
       125        2.0000           -0.3659339              -9.9576
       126        2.0000           -0.3538227              -9.6280
       127        2.0000           -0.3422428              -9.3129
       128        2.0000           -0.3267057              -8.8901
       129        2.0000           -0.3169263              -8.6240
       130        2.0000           -0.3147108              -8.5637
       131        2.0000           -0.3070346              -8.3548
       132        2.0000           -0.3046609              -8.2902 (HOMO)
       133                         -0.2724174              -7.4129 (LUMO)
       134                         -0.2444858              -6.6528
       135                         -0.2419927              -6.5850
       136                         -0.2148461              -5.8463
       137                         -0.2011208              -5.4728
       138                         -0.1908410              -5.1930
       139                         -0.1750990              -4.7647
       140                         -0.1459920              -3.9726
       141                         -0.1395017              -3.7960
       142                         -0.1233878              -3.3576
       143                         -0.1200734              -3.2674
       ...                                ...                  ...
       252                          3.7569127             102.2308
      -------------------------------------------------------------
                  HL-Gap            0.0322435 Eh            0.8774 eV
             Fermi-level           -0.2885016 Eh           -7.8505 eV

     #   Z          covCN         q      C6AA      α(0)
     1   7 N        2.559    -0.123    23.695     7.229
     2   6 C        2.955     0.075    26.317     8.414
     3   6 C        2.918    -0.044    29.084     8.844
     4   6 C        2.923    -0.024    28.593     8.769
     5   6 C        2.915    -0.045    29.118     8.849
     6   6 C        2.892     0.048    26.925     8.507
     7   1 H        0.926     0.051     2.313     2.378
     8   1 H        0.926     0.053     2.288     2.365
     9   1 H        0.926     0.044     2.402     2.424
    10   6 C        2.954     0.072    26.400     8.427
    11   7 N        2.564    -0.126    23.763     7.240
    12   6 C        2.890     0.042    27.062     8.529
    13   6 C        2.915    -0.046    29.141     8.852
    14   6 C        2.922    -0.026    28.642     8.776
    15   6 C        2.918    -0.046    29.136     8.851
    16   1 H        0.926     0.042     2.420     2.432
    17   1 H        0.926     0.049     2.337     2.391
    18   1 H        0.926     0.076     2.024     2.225
    19  77 Ir       5.960    -0.159   388.583    36.453
    20   1 H        0.977     0.086     1.913     2.161
    21   5 B        2.628     0.402    16.041     6.768
    22   8 O        1.638    -0.411    21.080     6.198
    23   6 C        3.836     0.131    18.442     6.110
    24   6 C        3.755    -0.121    22.867     6.818
    25   1 H        0.925     0.053     2.285     2.364
    26   1 H        0.925     0.044     2.399     2.422
    27   1 H        0.925     0.050     2.318     2.381
    28   6 C        3.754    -0.108    22.617     6.781
    29   1 H        0.925     0.046     2.368     2.407
    30   1 H        0.925     0.040     2.446     2.446
    31   1 H        0.925     0.027     2.625     2.534
    32   6 C        3.841     0.131    18.432     6.107
    33   8 O        1.637    -0.405    20.961     6.180
    34   6 C        3.755    -0.119    22.843     6.815
    35   1 H        0.925     0.049     2.334     2.389
    36   1 H        0.925     0.045     2.383     2.414
    37   1 H        0.925     0.049     2.328     2.386
    38   6 C        3.754    -0.119    22.843     6.815
    39   1 H        0.925     0.047     2.362     2.404
    40   1 H        0.925     0.053     2.285     2.364
    41   1 H        0.925     0.044     2.395     2.420
    42   5 B        2.624     0.403    16.052     6.774
    43   8 O        1.637    -0.386    20.591     6.125
    44   6 C        3.837     0.129    18.469     6.114
    45   6 C        3.755    -0.125    22.962     6.833
    46   1 H        0.925     0.054     2.266     2.354
    47   1 H        0.925     0.055     2.257     2.349
    48   1 H        0.925     0.049     2.331     2.388
    49   6 C        3.755    -0.121    22.882     6.821
    50   1 H        0.925     0.047     2.353     2.399
    51   1 H        0.925     0.044     2.390     2.418
    52   1 H        0.925     0.053     2.287     2.365
    53   6 C        3.833     0.128    18.486     6.117
    54   8 O        1.637    -0.383    20.532     6.116
    55   6 C        3.755    -0.124    22.938     6.829
    56   1 H        0.925     0.053     2.280     2.361
    57   1 H        0.925     0.054     2.267     2.354
    58   1 H        0.925     0.048     2.351     2.398
    59   6 C        3.755    -0.123    22.924     6.827
    60   1 H        0.925     0.044     2.397     2.421
    61   1 H        0.925     0.052     2.296     2.369
    62   1 H        0.925     0.051     2.309     2.376
    63   5 B        2.623     0.401    16.085     6.782
    64   8 O        1.637    -0.379    20.448     6.104
    65   6 C        3.831     0.125    18.531     6.125
    66   6 C        3.755    -0.130    23.057     6.847
    67   1 H        0.925     0.059     2.211     2.325
    68   1 H        0.925     0.054     2.274     2.358
    69   1 H        0.925     0.049     2.328     2.386
    70   6 C        3.755    -0.129    23.027     6.842
    71   1 H        0.925     0.060     2.197     2.318
    72   1 H        0.925     0.050     2.322     2.383
    73   1 H        0.925     0.051     2.306     2.375
    74   6 C        3.827     0.127    18.502     6.121
    75   8 O        1.637    -0.382    20.506     6.113
    76   6 C        3.755    -0.123    22.923     6.827
    77   1 H        0.925     0.050     2.321     2.382
    78   1 H        0.925     0.052     2.290     2.366
    79   1 H        0.925     0.054     2.267     2.355
    80   6 C        3.755    -0.122    22.889     6.822
    81   1 H        0.925     0.040     2.448     2.447
    82   1 H        0.925     0.049     2.333     2.389
    83   1 H        0.925     0.054     2.276     2.359
    84   1 H        0.926     0.049     2.327     2.385
    85   1 H        0.926     0.046     2.367     2.406
    86   6 C        2.833    -0.023    28.560     8.758
    87   6 C        2.924    -0.040    28.995     8.830
    88   6 C        2.911    -0.063    29.564     8.916
    89   6 C        2.910    -0.047    29.176     8.857
    90   1 H        0.925     0.015     2.803     2.618
    91   6 C        3.084     0.044    26.929     8.507
    92   1 H        0.926     0.036     2.506     2.476
    93   6 C        3.116    -0.022    28.382     8.726
    94   1 H        0.925     0.018     2.761     2.598
    95   7 N        2.782    -0.115    23.505     7.201
    96   6 C        3.009    -0.080    29.979     8.982
    97   6 C        3.031    -0.004    28.101     8.695
    98   1 H        0.860     0.190     1.160     1.687
    99   1 H        0.926     0.022     2.709     2.574
   100   1 H        0.926     0.037     2.487     2.466

 Mol. C6AA /au·bohr⁶  :     108533.372283
 Mol. C8AA /au·bohr⁸  :    2895091.097607
 Mol. α(0) /au        :        512.454502


Wiberg/Mayer (AO) data.
largest (>0.10) Wiberg bond orders for each atom

 ---------------------------------------------------------------------------
     #   Z sym  total        # sym  WBO       # sym  WBO       # sym  WBO
 ---------------------------------------------------------------------------
     1   7 N    3.402 --     6 C    1.385     2 C    1.305    19 Ir   0.450
     2   6 C    3.979 --     3 C    1.345     1 N    1.305    10 C    1.097
     3   6 C    3.988 --     4 C    1.487     2 C    1.345     9 H    0.962
                             6 C    0.106
     4   6 C    3.985 --     3 C    1.487     5 C    1.376    84 H    0.969
     5   6 C    3.979 --     6 C    1.464     4 C    1.376     8 H    0.969
     6   6 C    3.978 --     5 C    1.464     1 N    1.385     7 H    0.957
                             3 C    0.106
     7   1 H    0.997 --     6 C    0.957
     8   1 H    0.997 --     5 C    0.969
     9   1 H    0.998 --     3 C    0.962
    10   6 C    3.979 --    15 C    1.349    11 N    1.299     2 C    1.097
    11   7 N    3.406 --    12 C    1.383    10 C    1.299    19 Ir   0.436
    12   6 C    3.973 --    13 C    1.461    11 N    1.383    18 H    0.948
                            15 C    0.105
    13   6 C    3.982 --    12 C    1.461    14 C    1.379    17 H    0.969
    14   6 C    3.982 --    15 C    1.482    13 C    1.379    85 H    0.969
    15   6 C    3.989 --    14 C    1.482    10 C    1.349    16 H    0.962
                            12 C    0.105
    16   1 H    0.998 --    15 C    0.962
    17   1 H    0.997 --    13 C    0.969
    18   1 H    0.994 --    12 C    0.948
    19  77 Ir   5.191 --    63 B    0.876    42 B    0.865    21 B    0.717
                            86 C    0.587    20 H    0.529     1 N    0.450
                            11 N    0.436
    20   1 H    0.990 --    19 Ir   0.529    86 C    0.351
    21   5 B    3.265 --    33 O    1.106    22 O    1.087    19 Ir   0.717
    22   8 O    2.186 --    21 B    1.087    23 C    0.944
    23   6 C    3.944 --    24 C    0.996    28 C    0.990    22 O    0.944
                            32 C    0.941
    24   6 C    3.994 --    23 C    0.996    26 H    0.984    27 H    0.983
                            25 H    0.983
    25   1 H    0.997 --    24 C    0.983
    26   1 H    0.997 --    24 C    0.984
    27   1 H    0.997 --    24 C    0.983
    28   6 C    3.997 --    23 C    0.990    31 H    0.985    29 H    0.984
                            30 H    0.984
    29   1 H    0.997 --    28 C    0.984
    30   1 H    0.998 --    28 C    0.984
    31   1 H    0.999 --    28 C    0.985
    32   6 C    3.941 --    38 C    0.997    34 C    0.991    23 C    0.941
                            33 O    0.941
    33   8 O    2.198 --    21 B    1.106    32 C    0.941
    34   6 C    3.994 --    32 C    0.991    36 H    0.984    35 H    0.982
                            37 H    0.982
    35   1 H    0.998 --    34 C    0.982
    36   1 H    0.997 --    34 C    0.984
    37   1 H    0.997 --    34 C    0.982
    38   6 C    3.994 --    32 C    0.997    41 H    0.984    39 H    0.983
                            40 H    0.983
    39   1 H    0.998 --    38 C    0.983
    40   1 H    0.997 --    38 C    0.983
    41   1 H    0.997 --    38 C    0.984
    42   5 B    3.331 --    43 O    1.109    54 O    1.106    19 Ir   0.865
    43   8 O    2.219 --    42 B    1.109    44 C    0.937
    44   6 C    3.938 --    45 C    0.997    49 C    0.991    53 C    0.939
                            43 O    0.937
    45   6 C    3.993 --    44 C    0.997    48 H    0.983    46 H    0.982
                            47 H    0.982
    46   1 H    0.997 --    45 C    0.982
    47   1 H    0.997 --    45 C    0.982
    48   1 H    0.996 --    45 C    0.983
    49   6 C    3.994 --    44 C    0.991    50 H    0.984    51 H    0.983
                            52 H    0.979
    50   1 H    0.997 --    49 C    0.984
    51   1 H    0.998 --    49 C    0.983
    52   1 H    0.997 --    49 C    0.979
    53   6 C    3.938 --    55 C    0.996    59 C    0.991    44 C    0.939
                            54 O    0.936
    54   8 O    2.225 --    42 B    1.106    53 C    0.936
    55   6 C    3.993 --    53 C    0.996    58 H    0.983    57 H    0.983
                            56 H    0.983
    56   1 H    0.997 --    55 C    0.983
    57   1 H    0.997 --    55 C    0.983
    58   1 H    0.996 --    55 C    0.983
    59   6 C    3.994 --    53 C    0.991    61 H    0.983    62 H    0.983
                            60 H    0.982
    60   1 H    0.998 --    59 C    0.982
    61   1 H    0.996 --    59 C    0.983
    62   1 H    0.997 --    59 C    0.983
    63   5 B    3.358 --    75 O    1.114    64 O    1.109    19 Ir   0.876
    64   8 O    2.226 --    63 B    1.109    65 C    0.940
    65   6 C    3.938 --    70 C    0.996    66 C    0.991    64 O    0.940
                            74 C    0.937
    66   6 C    3.992 --    65 C    0.991    69 H    0.983    68 H    0.983
                            67 H    0.979
    67   1 H    0.996 --    66 C    0.979
    68   1 H    0.997 --    66 C    0.983
    69   1 H    0.997 --    66 C    0.983
    70   6 C    3.992 --    65 C    0.996    72 H    0.984    73 H    0.982
                            71 H    0.982
    71   1 H    0.996 --    70 C    0.982
    72   1 H    0.996 --    70 C    0.984
    73   1 H    0.997 --    70 C    0.982
    74   6 C    3.936 --    76 C    0.995    80 C    0.991    75 O    0.938
                            65 C    0.937
    75   8 O    2.231 --    63 B    1.114    74 C    0.938
    76   6 C    3.993 --    74 C    0.995    77 H    0.983    78 H    0.982
                            79 H    0.982
    77   1 H    0.996 --    76 C    0.983
    78   1 H    0.997 --    76 C    0.982
    79   1 H    0.997 --    76 C    0.982
    80   6 C    3.995 --    74 C    0.991    81 H    0.984    83 H    0.983
                            82 H    0.983
    81   1 H    0.998 --    80 C    0.984
    82   1 H    0.997 --    80 C    0.983
    83   1 H    0.996 --    80 C    0.983
    84   1 H    0.997 --     4 C    0.969
    85   1 H    0.997 --    14 C    0.969
    86   6 C    3.956 --    88 C    1.435    87 C    1.324    19 Ir   0.587
                            20 H    0.351
    87   6 C    3.989 --    89 C    1.503    86 C    1.324    90 H    0.963
    88   6 C    3.985 --    86 C    1.435    91 C    1.339    92 H    0.958
                            89 C    0.109
    89   6 C    3.988 --    87 C    1.503    93 C    1.322    94 H    0.969
                            88 C    0.109
    90   1 H    0.999 --    87 C    0.963
    91   6 C    3.959 --    88 C    1.339    93 C    1.243    95 N    1.178
    92   1 H    0.998 --    88 C    0.958
    93   6 C    3.981 --    89 C    1.322    91 C    1.243    96 C    1.229
    94   1 H    0.999 --    89 C    0.969
    95   7 N    3.537 --    97 C    1.203    91 C    1.178    98 H    0.936
    96   6 C    3.975 --    97 C    1.608    93 C    1.229    99 H    0.974
    97   6 C    3.944 --    96 C    1.608    95 N    1.203   100 H    0.970
    98   1 H    0.963 --    95 N    0.936
    99   1 H    0.999 --    96 C    0.974
   100   1 H    0.998 --    97 C    0.970
 ---------------------------------------------------------------------------

Topologies differ in total number of bonds
Writing topology from bond orders to xtbtopo.mol

molecular dipole:
                 x           y           z       tot (Debye)
 q only:        0.984       0.399      -0.158
   full:       -0.085       0.703      -0.708       2.544
molecular quadrupole (traceless):
                xx          xy          yy          xz          yz          zz
 q only:       10.636      -2.686      -8.844      16.857      10.895      -1.792
  q+dip:       16.122      -0.822     -13.808      19.880      15.822      -2.314
   full:       12.915      -0.307     -10.569      17.815      12.987      -2.346


           -------------------------------------------------
          | TOTAL ENERGY             -144.166786500688 Eh   |
          | GRADIENT NORM               0.033864347980 Eh/α |
          | HOMO-LUMO GAP               0.877390941365 eV   |
           -------------------------------------------------

------------------------------------------------------------------------
 * finished run on 2022/01/14 at 14:16:51.930     
------------------------------------------------------------------------
 total:
 * wall-time:     0 d,  0 h,  0 min,  0.123 sec
 *  cpu-time:     0 d,  0 h,  0 min,  0.715 sec
 * ratio c/w:     5.833 speedup
 SCF:
 * wall-time:     0 d,  0 h,  0 min,  0.093 sec
 *  cpu-time:     0 d,  0 h,  0 min,  0.552 sec
 * ratio c/w:     5.959 speedup

