      -----------------------------------------------------------      
     |                   =====================                   |     
     |                           x T B                           |     
     |                   =====================                   |     
     |                         S. Grimme                         |     
     |          Mulliken Center for Theoretical Chemistry        |     
     |                    University of Bonn                     |     
      -----------------------------------------------------------      

   * xtb version 6.4.1 (1a32961) compiled by 'knkr256@seskscpg007.prim.scp' on 2021-10-19

   xtb is free software: you can redistribute it and/or modify it under
   the terms of the GNU Lesser General Public License as published by
   the Free Software Foundation, either version 3 of the License, or
   (at your option) any later version.
   
   xtb is distributed in the hope that it will be useful,
   but WITHOUT ANY WARRANTY; without even the implied warranty of
   MERCHANTABILITY or FITNESS FOR A PARTICULAR PURPOSE.  See the
   GNU Lesser General Public License for more details.
   
   Cite this work as:
   * C. Bannwarth, E. Caldeweyher, S. Ehlert, A. Hansen, P. Pracht,
     J. Seibert, S. Spicher, S. Grimme, WIREs Comput. Mol. Sci., 2020, 11,
     e01493. DOI: 10.1002/wcms.1493
   
   for GFN2-xTB:
   * C. Bannwarth, S. Ehlert and S. Grimme., J. Chem. Theory Comput., 2019,
     15, 1652-1671. DOI: 10.1021/acs.jctc.8b01176
   for GFN1-xTB:
   * S. Grimme, C. Bannwarth, P. Shushkov, J. Chem. Theory Comput., 2017,
     13, 1989-2009. DOI: 10.1021/acs.jctc.7b00118
   for GFN0-xTB:
   * P. Pracht, E. Caldeweyher, S. Ehlert, S. Grimme, ChemRxiv, 2019, preprint.
     DOI: 10.26434/chemrxiv.8326202.v1
   for GFN-FF:
   * S. Spicher and S. Grimme, Angew. Chem. Int. Ed., 2020, 59, 15665-15673.
     DOI: 10.1002/anie.202004239
   
   for ALPB and GBSA implicit solvation:
   * S. Ehlert, M. Stahn, S. Spicher, S. Grimme, J. Chem. Theory Comput.,
     2021, 17, 4250-4261. DOI: 10.1021/acs.jctc.1c00471
   
   for DFT-D4:
   * E. Caldeweyher, C. Bannwarth and S. Grimme, J. Chem. Phys., 2017,
     147, 034112. DOI: 10.1063/1.4993215
   * E. Caldeweyher, S. Ehlert, A. Hansen, H. Neugebauer, S. Spicher,
     C. Bannwarth and S. Grimme, J. Chem. Phys., 2019, 150, 154122.
     DOI: 10.1063/1.5090222
   * E. Caldeweyher, J.-M. Mewes, S. Ehlert and S. Grimme, Phys. Chem. Chem. Phys.
     2020, 22, 8499-8512. DOI: 10.1039/D0CP00502A
   
   for sTDA-xTB:
   * S. Grimme and C. Bannwarth, J. Chem. Phys., 2016, 145, 054103.
     DOI: 10.1063/1.4959605
   
   in the mass-spec context:
   * V. Asgeirsson, C. Bauer and S. Grimme, Chem. Sci., 2017, 8, 4879.
     DOI: 10.1039/c7sc00601b
   * J. Koopman and S. Grimme, ACS Omega 2019, 4, 12, 15120-15133.
     DOI: 10.1021/acsomega.9b02011
   
   for metadynamics refer to:
   * S. Grimme, J. Chem. Theory Comput., 2019, 155, 2847-2862
     DOI: 10.1021/acs.jctc.9b00143
   
   for SPH calculations refer to:
   * S. Spicher and S. Grimme, J. Chem. Theory Comput., 2021, 17, 1701-1714
     DOI: 10.1021/acs.jctc.0c01306
   
   with help from (in alphabetical order)
   P. Atkinson, C. Bannwarth, F. Bohle, G. Brandenburg, E. Caldeweyher
   M. Checinski, S. Dohm, S. Ehlert, S. Ehrlich, I. Gerasimov, J. Koopman
   C. Lavigne, S. Lehtola, F. März, M. Müller, F. Musil, H. Neugebauer
   J. Pisarek, C. Plett, P. Pracht, J. Seibert, P. Shushkov, S. Spicher
   M. Stahn, M. Steiner, T. Strunk, J. Stückrath, T. Rose, and J. Unsleber
   
 * started run on 2022/01/14 at 13:58:12.336     

           -------------------------------------------------
          |                Calculation Setup                |
           -------------------------------------------------

          program call               : xtb xtbopt.xyz --sp --alpb thf -P 6
          hostname                   : seskscpg007.prim.scp
          coordinate file            : xtbopt.xyz
          omp threads                :                     6
          number of atoms            :                   105
          number of electrons        :                   280
          charge                     :                     0
          spin                       :                   0.0
          first test random number   :      0.71968207376682

   ID    Z sym.   atoms
    1    7 N      1, 11
    2    6 C      2-6, 10, 12-15, 23, 24, 28, 32, 34, 38, 44, 45, 49, 53, 55,
                  59, 65, 66, 70, 74, 76, 80, 86-89, 92, 97-99
    3    1 H      7-9, 16-18, 20, 25-27, 29-31, 35-37, 39-41, 46-48, 50-52,
                  56-58, 60-62, 67-69, 71-73, 77-79, 81-85, 90, 93, 96,
                  100-105
    4   77 Ir     19
    5    5 B      21, 42, 63
    6    8 O      22, 33, 43, 54, 64, 75
    7   16 S      91, 94, 95

molecular fragmentation (1/2 indicates fragments):
111111111111111111111111111111111111111111111111111111111111111111111111
111111111111122222222222222222222
# atoms in fragment 1/2:    85    20
 fragment masses (1/2) :      730.32      201.35
CMA distance (Bohr)    :   9.048
constraining FC (au)   :  0.0500

           -------------------------------------------------
          |                 G F N 2 - x T B                 |
           -------------------------------------------------

        Reference                      10.1021/acs.jctc.8b01176
      * Hamiltonian:
        H0-scaling (s, p, d)           1.850000    2.230000    2.230000
        zeta-weighting                 0.500000
      * Dispersion:
        s8                             2.700000
        a1                             0.520000
        a2                             5.000000
        s9                             5.000000
      * Repulsion:
        kExp                           1.500000    1.000000
        rExp                           1.000000
      * Coulomb:
        alpha                          2.000000
        third order                    shell-resolved
        anisotropic                    true
        a3                             3.000000
        a5                             4.000000
        cn-shift                       1.200000
        cn-exp                         4.000000
        max-rad                        5.000000

      * Solvation model:               ALPB
        Solvent                        thf
        Parameter file                 internal GFN2-xTB/ALPB
        Dielectric constant                7.6000E+00
        Reference state                gsolv [1 M gas/solution]
        Free energy shift                  5.3248E-03 Eh       3.3414E+00 kcal/mol
        Temperature                        2.9815E+02 K
        Density                            8.8300E-01 kg/L
        Solvent mass                       7.2106E+01 g/mol
        Interaction kernel             P16
        Born radius scaling (c1)           1.7311E+00
        Born radii integrator          GBOBC
        Born offset                        0.0000E+00 a0       0.0000E+00 AA
        H-bond correction              true
        Ion screening                  false
        Surface tension                    1.0000E-05 Eh       1.5569E+01 dyn/cm
        Grid points                               230 per atom
q/qsh data taken from xtbrestart
CAMM data taken from xtbrestart

          ...................................................
          :                      SETUP                      :
          :.................................................:
          :  # basis functions                 282          :
          :  # atomic orbitals                 278          :
          :  # shells                          160          :
          :  # electrons                       280          :
          :  max. iterations                   250          :
          :  Hamiltonian                  GFN2-xTB          :
          :  restarted?                       true          :
          :  GBSA solvation                   true          :
          :  PC potential                    false          :
          :  electronic temp.          300.0000000     K    :
          :  accuracy                    1.0000000          :
          :  -> integral cutoff          0.2500000E+02      :
          :  -> integral neglect         0.1000000E-07      :
          :  -> SCF convergence          0.1000000E-05 Eh   :
          :  -> wf. convergence          0.1000000E-03 e    :
          :  Broyden damping             0.4000000          :
          ...................................................

 iter      E             dE          RMSdq      gap      omega  full diag
   1   -154.3564461 -0.154356E+03  0.326E-05    0.81       0.0  T
   2   -154.3564461  0.521794E-09  0.778E-05    0.81     125.5  T
   3   -154.3564461 -0.599783E-09  0.144E-05    0.81     677.0  T

   *** convergence criteria satisfied after 3 iterations ***

         #    Occupation            Energy/Eh            Energy/eV
      -------------------------------------------------------------
         1        2.0000           -0.7149163             -19.4539
       ...           ...                  ...                  ...
       134        2.0000           -0.3478617              -9.4658
       135        2.0000           -0.3440826              -9.3630
       136        2.0000           -0.3328556              -9.0575
       137        2.0000           -0.3270399              -8.8992
       138        2.0000           -0.3182747              -8.6607
       139        2.0000           -0.3106671              -8.4537
       140        2.0000           -0.3080047              -8.3812 (HOMO)
       141        0.0000           -0.2781036              -7.5676 (LUMO)
       142                         -0.2502840              -6.8106
       143                         -0.2475269              -6.7355
       144                         -0.2355343              -6.4092
       145                         -0.2100805              -5.7166
       ...                                ...                  ...
       278                          3.6242103              98.6198
      -------------------------------------------------------------
                  HL-Gap            0.0299010 Eh            0.8136 eV
             Fermi-level           -0.2930262 Eh           -7.9736 eV

 SCC (total)                   0 d,  0 h,  0 min,  0.095 sec
 SCC setup                      ...        0 min,  0.002 sec (  2.517%)
 Dispersion                     ...        0 min,  0.003 sec (  2.778%)
 classical contributions        ...        0 min,  0.000 sec (  0.158%)
 integral evaluation            ...        0 min,  0.012 sec ( 12.543%)
 iterations                     ...        0 min,  0.039 sec ( 40.725%)
 molecular gradient             ...        0 min,  0.038 sec ( 40.474%)
 printout                       ...        0 min,  0.001 sec (  0.720%)

         :::::::::::::::::::::::::::::::::::::::::::::::::::::
         ::                     SUMMARY                     ::
         :::::::::::::::::::::::::::::::::::::::::::::::::::::
         :: total energy            -152.496281406862 Eh    ::
         :: total w/o Gsasa/hb      -152.455751117399 Eh    ::
         :: gradient norm              0.037042954481 Eh/a0 ::
         :: HOMO-LUMO gap              0.813648219898 eV    ::
         ::.................................................::
         :: SCC energy              -154.356446117648 Eh    ::
         :: -> isotropic ES            0.244974052120 Eh    ::
         :: -> anisotropic ES          0.006653940969 Eh    ::
         :: -> anisotropic XC          0.054986371383 Eh    ::
         :: -> dispersion             -0.159332062020 Eh    ::
         :: -> Gsolv                  -0.052084576050 Eh    ::
         ::    -> Gelec               -0.011554286586 Eh    ::
         ::    -> Gsasa               -0.043251648323 Eh    ::
         ::    -> Ghb                 -0.002603456585 Eh    ::
         ::    -> Gshift               0.005324815444 Eh    ::
         :: repulsion energy           1.849158424699 Eh    ::
         :: add. restraining           0.000000000000 Eh    ::
         :: total charge               0.000000000005 e     ::
         :::::::::::::::::::::::::::::::::::::::::::::::::::::

           -------------------------------------------------
          |                Property Printout                |
           -------------------------------------------------

    * Orbital Energies and Occupations

         #    Occupation            Energy/Eh            Energy/eV
      -------------------------------------------------------------
         1        2.0000           -0.7149163             -19.4539
       ...           ...                  ...                  ...
       128        2.0000           -0.3875361             -10.5454
       129        2.0000           -0.3840348             -10.4501
       130        2.0000           -0.3815023             -10.3812
       131        2.0000           -0.3767408             -10.2516
       132        2.0000           -0.3733083             -10.1582
       133        2.0000           -0.3517700              -9.5721
       134        2.0000           -0.3478617              -9.4658
       135        2.0000           -0.3440826              -9.3630
       136        2.0000           -0.3328556              -9.0575
       137        2.0000           -0.3270399              -8.8992
       138        2.0000           -0.3182747              -8.6607
       139        2.0000           -0.3106671              -8.4537
       140        2.0000           -0.3080047              -8.3812 (HOMO)
       141        0.0000           -0.2781036              -7.5676 (LUMO)
       142                         -0.2502840              -6.8106
       143                         -0.2475269              -6.7355
       144                         -0.2355343              -6.4092
       145                         -0.2100805              -5.7166
       146                         -0.2071514              -5.6369
       147                         -0.2058973              -5.6028
       148                         -0.1909600              -5.1963
       149                         -0.1786640              -4.8617
       150                         -0.1579574              -4.2982
       151                         -0.1504198              -4.0931
       ...                                ...                  ...
       278                          3.6242103              98.6198
      -------------------------------------------------------------
                  HL-Gap            0.0299010 Eh            0.8136 eV
             Fermi-level           -0.2930262 Eh           -7.9736 eV

     #   Z          covCN         q      C6AA      α(0)
     1   7 N        2.479    -0.132    23.930     7.265
     2   6 C        2.953     0.077    26.290     8.410
     3   6 C        2.919    -0.045    29.130     8.851
     4   6 C        2.923    -0.021    28.528     8.759
     5   6 C        2.915    -0.043    29.069     8.841
     6   6 C        2.893     0.047    26.947     8.511
     7   1 H        0.926     0.070     2.083     2.257
     8   1 H        0.926     0.055     2.262     2.352
     9   1 H        0.926     0.045     2.377     2.411
    10   6 C        2.954     0.071    26.411     8.429
    11   7 N        2.459    -0.143    24.176     7.302
    12   6 C        2.892     0.047    26.946     8.511
    13   6 C        2.916    -0.043    29.076     8.842
    14   6 C        2.922    -0.025    28.624     8.774
    15   6 C        2.919    -0.047    29.169     8.857
    16   1 H        0.926     0.043     2.406     2.425
    17   1 H        0.926     0.050     2.318     2.381
    18   1 H        0.926     0.076     2.019     2.222
    19  77 Ir       5.776    -0.156   388.223    36.436
    20   1 H        0.977     0.112     1.679     2.025
    21   5 B        2.621     0.405    16.042     6.775
    22   8 O        1.638    -0.415    21.159     6.209
    23   6 C        3.829     0.131    18.443     6.111
    24   6 C        3.755    -0.118    22.813     6.810
    25   1 H        0.925     0.048     2.341     2.393
    26   1 H        0.925     0.046     2.375     2.410
    27   1 H        0.925     0.050     2.318     2.381
    28   6 C        3.755    -0.109    22.647     6.786
    29   1 H        0.925     0.048     2.346     2.395
    30   1 H        0.925     0.042     2.420     2.433
    31   1 H        0.925     0.027     2.625     2.533
    32   6 C        3.834     0.131    18.434     6.108
    33   8 O        1.637    -0.405    20.957     6.179
    34   6 C        3.755    -0.122    22.897     6.823
    35   1 H        0.925     0.053     2.287     2.365
    36   1 H        0.925     0.048     2.348     2.396
    37   1 H        0.925     0.050     2.323     2.383
    38   6 C        3.755    -0.118    22.825     6.812
    39   1 H        0.925     0.044     2.402     2.424
    40   1 H        0.925     0.053     2.277     2.360
    41   1 H        0.925     0.046     2.367     2.406
    42   5 B        2.627     0.405    16.019     6.765
    43   8 O        1.637    -0.364    20.179     6.064
    44   6 C        3.841     0.129    18.459     6.112
    45   6 C        3.755    -0.123    22.912     6.825
    46   1 H        0.925     0.059     2.211     2.325
    47   1 H        0.925     0.054     2.266     2.354
    48   1 H        0.925     0.045     2.377     2.411
    49   6 C        3.756    -0.123    22.914     6.825
    50   1 H        0.925     0.045     2.390     2.417
    51   1 H        0.925     0.050     2.324     2.384
    52   1 H        0.925     0.053     2.287     2.365
    53   6 C        3.829     0.128    18.486     6.118
    54   8 O        1.638    -0.381    20.486     6.110
    55   6 C        3.755    -0.121    22.876     6.820
    56   1 H        0.925     0.052     2.293     2.368
    57   1 H        0.925     0.049     2.332     2.388
    58   1 H        0.925     0.046     2.371     2.408
    59   6 C        3.755    -0.122    22.904     6.824
    60   1 H        0.925     0.051     2.309     2.376
    61   1 H        0.925     0.050     2.320     2.382
    62   1 H        0.925     0.048     2.351     2.398
    63   5 B        2.630     0.417    15.859     6.728
    64   8 O        1.637    -0.376    20.405     6.098
    65   6 C        3.829     0.126    18.515     6.122
    66   6 C        3.755    -0.130    23.060     6.847
    67   1 H        0.925     0.061     2.187     2.312
    68   1 H        0.925     0.060     2.196     2.317
    69   1 H        0.925     0.053     2.285     2.364
    70   6 C        3.754    -0.122    22.892     6.822
    71   1 H        0.925     0.052     2.297     2.370
    72   1 H        0.925     0.054     2.268     2.355
    73   1 H        0.925     0.040     2.454     2.450
    74   6 C        3.835     0.129    18.470     6.114
    75   8 O        1.637    -0.373    20.337     6.087
    76   6 C        3.756    -0.127    22.997     6.838
    77   1 H        0.925     0.054     2.276     2.359
    78   1 H        0.925     0.053     2.279     2.361
    79   1 H        0.925     0.058     2.225     2.333
    80   6 C        3.755    -0.122    22.891     6.822
    81   1 H        0.925     0.045     2.388     2.417
    82   1 H        0.925     0.057     2.234     2.337
    83   1 H        0.925     0.053     2.285     2.364
    84   1 H        0.926     0.052     2.296     2.369
    85   1 H        0.926     0.047     2.352     2.398
    86   6 C        2.962    -0.048    29.183     8.861
    87   6 C        3.152    -0.040    28.698     8.762
    88   6 C        3.085     0.005    27.809     8.645
    89   6 C        2.918    -0.025    28.618     8.773
    90   1 H        0.926     0.031     2.568     2.506
    91  16 S        2.322    -0.099   145.208    20.281
    92   6 C        3.891     0.080    19.194     6.228
    93   1 H        0.926     0.042     2.427     2.436
    94  16 S        2.107    -0.204   149.745    20.596
    95  16 S        2.120    -0.226   150.729    20.663
    96   1 H        0.924     0.044     2.400     2.422
    97   6 C        3.794    -0.017    20.883     6.507
    98   6 C        3.795    -0.010    20.765     6.489
    99   6 C        3.851    -0.065    21.704     6.626
   100   1 H        0.925     0.068     2.103     2.268
   101   1 H        0.924     0.057     2.239     2.340
   102   1 H        0.925     0.066     2.128     2.281
   103   1 H        0.924     0.051     2.310     2.377
   104   1 H        0.924     0.068     2.109     2.271
   105   1 H        0.924     0.063     2.161     2.299

 Mol. C6AA /au·bohr⁶  :     130774.883940
 Mol. C8AA /au·bohr⁸  :    3721890.324282
 Mol. α(0) /au        :        563.607774


Wiberg/Mayer (AO) data.
largest (>0.10) Wiberg bond orders for each atom

 ---------------------------------------------------------------------------
     #   Z sym  total        # sym  WBO       # sym  WBO       # sym  WBO
 ---------------------------------------------------------------------------
     1   7 N    3.375 --     6 C    1.401     2 C    1.327    19 Ir   0.392
     2   6 C    3.979 --     3 C    1.350     1 N    1.327    10 C    1.085
     3   6 C    3.988 --     4 C    1.480     2 C    1.350     9 H    0.963
                             6 C    0.107
     4   6 C    3.986 --     3 C    1.480     5 C    1.392    84 H    0.969
     5   6 C    3.980 --     6 C    1.451     4 C    1.392     8 H    0.969
     6   6 C    3.974 --     5 C    1.451     1 N    1.401     7 H    0.951
                             3 C    0.107
     7   1 H    0.995 --     6 C    0.951
     8   1 H    0.996 --     5 C    0.969
     9   1 H    0.997 --     3 C    0.963
    10   6 C    3.979 --    15 C    1.360    11 N    1.310     2 C    1.085
    11   7 N    3.354 --    12 C    1.391    10 C    1.310    19 Ir   0.388
    12   6 C    3.972 --    13 C    1.452    11 N    1.391    18 H    0.949
                            15 C    0.104
    13   6 C    3.981 --    12 C    1.452    14 C    1.393    17 H    0.969
    14   6 C    3.983 --    15 C    1.470    13 C    1.393    85 H    0.969
    15   6 C    3.989 --    14 C    1.470    10 C    1.360    16 H    0.963
                            12 C    0.104
    16   1 H    0.998 --    15 C    0.963
    17   1 H    0.997 --    13 C    0.969
    18   1 H    0.994 --    12 C    0.949
    19  77 Ir   5.162 --    42 B    0.890    63 B    0.868    21 B    0.725
                            86 C    0.582    20 H    0.564     1 N    0.392
                            11 N    0.388
    20   1 H    0.987 --    19 Ir   0.564    86 C    0.327
    21   5 B    3.260 --    33 O    1.114    22 O    1.082    19 Ir   0.725
    22   8 O    2.186 --    21 B    1.082    23 C    0.943
    23   6 C    3.943 --    24 C    0.996    28 C    0.990    22 O    0.943
                            32 C    0.939
    24   6 C    3.994 --    23 C    0.996    26 H    0.983    27 H    0.983
                            25 H    0.981
    25   1 H    0.998 --    24 C    0.981
    26   1 H    0.997 --    24 C    0.983
    27   1 H    0.997 --    24 C    0.983
    28   6 C    3.996 --    23 C    0.990    30 H    0.984    29 H    0.984
                            31 H    0.983
    29   1 H    0.997 --    28 C    0.984
    30   1 H    0.998 --    28 C    0.984
    31   1 H    0.999 --    28 C    0.983
    32   6 C    3.939 --    38 C    0.997    34 C    0.991    23 C    0.939
                            33 O    0.938
    33   8 O    2.200 --    21 B    1.114    32 C    0.938
    34   6 C    3.994 --    32 C    0.991    36 H    0.983    35 H    0.981
                            37 H    0.980
    35   1 H    0.997 --    34 C    0.981
    36   1 H    0.997 --    34 C    0.983
    37   1 H    0.997 --    34 C    0.980
    38   6 C    3.994 --    32 C    0.997    41 H    0.984    39 H    0.983
                            40 H    0.983
    39   1 H    0.998 --    38 C    0.983
    40   1 H    0.997 --    38 C    0.983
    41   1 H    0.997 --    38 C    0.984
    42   5 B    3.342 --    43 O    1.138    54 O    1.102    19 Ir   0.890
    43   8 O    2.241 --    42 B    1.138    44 C    0.939
    44   6 C    3.937 --    45 C    0.997    49 C    0.990    43 O    0.939
                            53 C    0.936
    45   6 C    3.992 --    44 C    0.997    48 H    0.983    47 H    0.982
                            46 H    0.976
    46   1 H    0.996 --    45 C    0.976
    47   1 H    0.997 --    45 C    0.982
    48   1 H    0.997 --    45 C    0.983
    49   6 C    3.994 --    44 C    0.990    50 H    0.984    51 H    0.983
                            52 H    0.977
    50   1 H    0.997 --    49 C    0.984
    51   1 H    0.997 --    49 C    0.983
    52   1 H    0.997 --    49 C    0.977
    53   6 C    3.938 --    55 C    0.994    59 C    0.992    54 O    0.937
                            44 C    0.936
    54   8 O    2.231 --    42 B    1.102    53 C    0.937
    55   6 C    3.994 --    53 C    0.994    58 H    0.983    57 H    0.983
                            56 H    0.982
    56   1 H    0.997 --    55 C    0.982
    57   1 H    0.997 --    55 C    0.983
    58   1 H    0.997 --    55 C    0.983
    59   6 C    3.994 --    53 C    0.992    61 H    0.983    62 H    0.983
                            60 H    0.978
    60   1 H    0.997 --    59 C    0.978
    61   1 H    0.996 --    59 C    0.983
    62   1 H    0.997 --    59 C    0.983
    63   5 B    3.367 --    75 O    1.132    64 O    1.102    19 Ir   0.868
    64   8 O    2.233 --    63 B    1.102    65 C    0.935
    65   6 C    3.936 --    66 C    0.997    70 C    0.991    74 C    0.938
                            64 O    0.935
    66   6 C    3.990 --    65 C    0.997    69 H    0.983    68 H    0.982
                            67 H    0.979
    67   1 H    0.996 --    66 C    0.979
    68   1 H    0.996 --    66 C    0.982
    69   1 H    0.996 --    66 C    0.983
    70   6 C    3.994 --    65 C    0.991    73 H    0.984    72 H    0.983
                            71 H    0.983
    71   1 H    0.997 --    70 C    0.983
    72   1 H    0.996 --    70 C    0.983
    73   1 H    0.998 --    70 C    0.984
    74   6 C    3.932 --    80 C    0.996    76 C    0.991    65 C    0.938
                            75 O    0.933
    75   8 O    2.243 --    63 B    1.132    74 C    0.933
    76   6 C    3.992 --    74 C    0.991    77 H    0.983    78 H    0.982
                            79 H    0.975
    77   1 H    0.996 --    76 C    0.983
    78   1 H    0.997 --    76 C    0.982
    79   1 H    0.997 --    76 C    0.975
    80   6 C    3.993 --    74 C    0.996    83 H    0.983    82 H    0.982
                            81 H    0.980
    81   1 H    0.998 --    80 C    0.980
    82   1 H    0.996 --    80 C    0.982
    83   1 H    0.996 --    80 C    0.983
    84   1 H    0.996 --     4 C    0.969
    85   1 H    0.997 --    14 C    0.969
    86   6 C    3.937 --    88 C    1.572    87 C    1.200    19 Ir   0.582
                            20 H    0.327
    87   6 C    3.986 --    89 C    1.654    86 C    1.200    90 H    0.953
                            91 S    0.105
    88   6 C    3.927 --    86 C    1.572    91 S    1.078    92 C    1.043
                            89 C    0.103
    89   6 C    3.944 --    87 C    1.654    91 S    1.170    93 H    0.969
                            88 C    0.103
    90   1 H    0.999 --    87 C    0.953
    91  16 S    2.560 --    89 C    1.170    88 C    1.078    87 C    0.105
    92   6 C    3.972 --    88 C    1.043    94 S    0.972    96 H    0.959
                            95 S    0.935
    93   1 H    0.997 --    89 C    0.969
    94  16 S    2.159 --    97 C    0.988    92 C    0.972
    95  16 S    2.133 --    98 C    0.989    92 C    0.935
    96   1 H    0.998 --    92 C    0.959
    97   6 C    3.974 --    99 C    1.014    94 S    0.988   101 H    0.970
                           100 H    0.967
    98   6 C    3.976 --    99 C    1.015    95 S    0.989   103 H    0.971
                           102 H    0.968
    99   6 C    3.993 --    98 C    1.015    97 C    1.014   104 H    0.970
                           105 H    0.960
   100   1 H    0.995 --    97 C    0.967
   101   1 H    0.997 --    97 C    0.970
   102   1 H    0.994 --    98 C    0.968
   103   1 H    0.997 --    98 C    0.971
   104   1 H    0.995 --    99 C    0.970
   105   1 H    0.995 --    99 C    0.960
 ---------------------------------------------------------------------------

Topologies differ in total number of bonds
Writing topology from bond orders to xtbtopo.mol

molecular dipole:
                 x           y           z       tot (Debye)
 q only:        1.417      -0.015      -1.341
   full:       -0.207      -0.073      -2.353       6.006
molecular quadrupole (traceless):
                xx          xy          yy          xz          yz          zz
 q only:       26.120      -4.649      -6.494      17.886       9.757     -19.625
  q+dip:       27.108      -1.407      -2.737      17.275      11.388     -24.371
   full:       27.487      -0.395      -4.112      14.892       9.932     -23.375


           -------------------------------------------------
          | TOTAL ENERGY             -152.496281406862 Eh   |
          | GRADIENT NORM               0.037042954481 Eh/α |
          | HOMO-LUMO GAP               0.813648219898 eV   |
           -------------------------------------------------

------------------------------------------------------------------------
 * finished run on 2022/01/14 at 13:58:12.466     
------------------------------------------------------------------------
 total:
 * wall-time:     0 d,  0 h,  0 min,  0.130 sec
 *  cpu-time:     0 d,  0 h,  0 min,  0.757 sec
 * ratio c/w:     5.808 speedup
 SCF:
 * wall-time:     0 d,  0 h,  0 min,  0.097 sec
 *  cpu-time:     0 d,  0 h,  0 min,  0.573 sec
 * ratio c/w:     5.935 speedup

