10
 energy: -16.429173276751 gnorm: 0.053025996808 xtb: 6.4.1 (1a32961)
C         1.11442000000000   -0.77207000000000    0.00970000000000
N         1.23645000000000    0.56831000000000    0.01032000000000
C         0.08379000000000    1.25602000000000   -0.00366000000000
N        -1.15074000000000    0.72892000000000   -0.02017000000000
C        -1.20939000000000   -0.61586000000000   -0.02004000000000
C        -0.09675000000000   -1.42527000000000   -0.00385000000000
H         2.04977000000000   -1.32364000000000    0.02080000000000
H         0.15661000000000    2.33791000000000   -0.00032000000000
H        -2.21028000000000   -1.03689000000000   -0.03414000000000
H        -0.16927000000000   -2.50322000000000   -0.00178000000000
10
 energy: -16.431244710456 gnorm: 0.015925943935 xtb: 6.4.1 (1a32961)
C         1.12347055670474   -0.76674341067080    0.00995832537087
N         1.22453902309934    0.56000458797890    0.01081426583842
C         0.08226995833293    1.23429677813738   -0.00298205331696
N        -1.14009188871500    0.71926010183437   -0.01955358157364
C        -1.21767225398784   -0.60917668600498   -0.01983040216585
C        -0.09641183257478   -1.42018490584939   -0.00418881245008
H         2.06420129644529   -1.30486981174688    0.02158301532992
H         0.15499326338748    2.31335369515542   -0.00204230763477
H        -2.22205747505424   -1.01642527801317   -0.03369673639650
H        -0.16863064763794   -2.49530507082084   -0.00320171300141
10
 energy: -16.431406420709 gnorm: 0.001881314758 xtb: 6.4.1 (1a32961)
C         1.12742551443010   -0.76526540570296    0.01036324063269
N         1.21920384025013    0.55721947847826    0.01087370377950
C         0.08188335157059    1.22894421739024   -0.00398018017717
N        -1.13523309250465    0.71589264775708   -0.01947817621491
C        -1.22140192900308   -0.60705816310110   -0.01960606063627
C        -0.09634893076648   -1.41897683544497   -0.00446709836543
H         2.06847314191070   -1.30041298867445    0.02228882490006
H         0.15472487353922    2.30882626005175   -0.00192404621908
H        -2.22564270955873   -1.01152094305615   -0.03298351061269
H        -0.16847405986778   -2.49343826769770   -0.00422669708669
10
 energy: -16.431409956744 gnorm: 0.000453833320 xtb: 6.4.1 (1a32961)
C         1.12817273085434   -0.76533028428825    0.01021589635293
N         1.21901574947668    0.55733835046601    0.01147111476438
C         0.08194276467543    1.23019248988621   -0.00270543598661
N        -1.13506043522765    0.71599337238045   -0.01888393160305
C        -1.22214795304815   -0.60699659095043   -0.01966062666285
C        -0.09635612760757   -1.41900034158470   -0.00494411579985
H         2.06798929960570   -1.30187163091038    0.02274415387036
H         0.15488179423766    2.31056532102048   -0.00374117145735
H        -2.22535651860792   -1.01305204689895   -0.03257503801867
H        -0.16847130435852   -2.49362863912043   -0.00506084545930
10
 energy: -16.431409926770 gnorm: 0.000484247875 xtb: 6.4.1 (1a32961)
C         1.12823486074779   -0.76518840831953    0.01066699833296
N         1.21907022227946    0.55741286831178    0.01098600605596
C         0.08198496777578    1.23047162298943   -0.00466685078238
N        -1.13509937895668    0.71607907787313   -0.01941416753909
C        -1.22220488185355   -0.60683725498658   -0.01932194392807
C        -0.09635058647895   -1.41877542456338   -0.00466809307991
H         2.06752804112667   -1.30247722285069    0.02280693430317
H         0.15488166973048    2.31069705369401   -0.00197331726585
H        -2.22497940419784   -1.01373376048983   -0.03241631670647
H        -0.16845551017317   -2.49343855165835   -0.00513924939031
10
 energy: -16.431410447755 gnorm: 0.000095248139 xtb: 6.4.1 (1a32961)
C         1.12811708319878   -0.76511784537871    0.01043217720679
N         1.21909925670655    0.55741041142620    0.01128952141502
C         0.08195832460572    1.23025774033906   -0.00360924774832
N        -1.13513648157448    0.71608261979150   -0.01909935278699
C        -1.22207496151918   -0.60678427689039   -0.01952821640524
C        -0.09634234285150   -1.41870631210911   -0.00493069780183
H         2.06751946027715   -1.30234521311036    0.02288239100469
H         0.15487361412070    2.31036000483993   -0.00300989316830
H        -2.22495491757655   -1.01360811532876   -0.03236110989055
H        -0.16844903538719   -2.49333901357937   -0.00520557182527
