      -----------------------------------------------------------      
     |                   =====================                   |     
     |                           x T B                           |     
     |                   =====================                   |     
     |                         S. Grimme                         |     
     |          Mulliken Center for Theoretical Chemistry        |     
     |                    University of Bonn                     |     
      -----------------------------------------------------------      

   * xtb version 6.4.0 (f63f532) compiled by 'knkr256@seskscpg008.prim.scp' on 2021-04-09

   xtb is free software: you can redistribute it and/or modify it under
   the terms of the GNU Lesser General Public License as published by
   the Free Software Foundation, either version 3 of the License, or
   (at your option) any later version.
   
   xtb is distributed in the hope that it will be useful,
   but WITHOUT ANY WARRANTY; without even the implied warranty of
   MERCHANTABILITY or FITNESS FOR A PARTICULAR PURPOSE.  See the
   GNU Lesser General Public License for more details.
   
   Cite this work as:
   * C. Bannwarth, E. Caldeweyher, S. Ehlert, A. Hansen, P. Pracht,
     J. Seibert, S. Spicher, S. Grimme, WIREs Comput. Mol. Sci., 2020, 11,
     e01493. DOI: 10.1002/wcms.1493
   
   for GFN2-xTB:
   * C. Bannwarth, S. Ehlert and S. Grimme., J. Chem. Theory Comput., 2019,
     15, 1652-1671. DOI: 10.1021/acs.jctc.8b01176
   for GFN1-xTB:
   * S. Grimme, C. Bannwarth, P. Shushkov, J. Chem. Theory Comput., 2017,
     13, 1989-2009. DOI: 10.1021/acs.jctc.7b00118
   for GFN0-xTB:
   * P. Pracht, E. Caldeweyher, S. Ehlert, S. Grimme, ChemRxiv, 2019, preprint.
     DOI: 10.26434/chemrxiv.8326202.v1
   for GFN-FF:
   * S. Spicher and S. Grimme, Angew. Chem. Int. Ed., 2020, 59, 15665-15673.
     DOI: 10.1002/anie.202004239
   
   for DFT-D4:
   * E. Caldeweyher, C. Bannwarth and S. Grimme, J. Chem. Phys., 2017,
     147, 034112. DOI: 10.1063/1.4993215
   * E. Caldeweyher, S. Ehlert, A. Hansen, H. Neugebauer, S. Spicher,
     C. Bannwarth and S. Grimme, J. Chem. Phys., 2019, 150, 154122.
     DOI: 10.1063/1.5090222
   * E. Caldeweyher, J.-M. Mewes, S. Ehlert and S. Grimme, Phys. Chem. Chem. Phys.
     2020, 22, 8499-8512. DOI: 10.1039/D0CP00502A
   
   for sTDA-xTB:
   * S. Grimme and C. Bannwarth, J. Chem. Phys., 2016, 145, 054103.
     DOI: 10.1063/1.4959605
   
   in the mass-spec context:
   * V. Asgeirsson, C. Bauer and S. Grimme, Chem. Sci., 2017, 8, 4879.
     DOI: 10.1039/c7sc00601b
   * J. Koopman and S. Grimme, ACS Omega 2019, 4, 12, 15120-15133.
     DOI: 10.1021/acsomega.9b02011
   
   for metadynamics refer to:
   * S. Grimme, J. Chem. Theory Comput., 2019, 155, 2847-2862
     DOI: 10.1021/acs.jctc.9b00143
   
   for SPH calculations refer to:
   * S. Spicher and S. Grimme, J. Chem. Theory Comput., 2021, 17, 1701-1714
     DOI: 10.1021/acs.jctc.0c01306
   
   with help from (in alphabetical order)
   P. Atkinson, C. Bannwarth, F. Bohle, G. Brandenburg, E. Caldeweyher
   M. Checinski, S. Dohm, S. Ehlert, S. Ehrlich, I. Gerasimov, J. Koopman
   C. Lavinge, S. Lehtola, F. März, M. Müller, F. Musil, H. Neugebauer
   J. Pisarek, P. Pracht, J. Seibert, P. Shushkov, S. Spicher, M. Stahn
   T. Strunk, J. Stückrath, T. Rose, and J. Unsleber
   
 * started run on 2021/10/08 at 07:29:34.760     

           -------------------------------------------------
          |                Calculation Setup                |
           -------------------------------------------------

          program call               : xtb xtbopt.xyz --sp --alpb thf -P 6
          hostname                   : seskscpg010.prim.scp
          coordinate file            : xtbopt.xyz
          omp threads                :                     6
          number of atoms            :                   103
          number of electrons        :                   274
          charge                     :                     0
          spin                       :                   0.0
          first test random number   :      0.32241849340758

   ID    Z sym.   atoms
    1    7 N      1, 11
    2    6 C      2-6, 10, 12-15, 23, 24, 28, 32, 34, 38, 44, 45, 49, 53, 55,
                  59, 65, 66, 70, 74, 76, 80, 86-89, 91, 94, 96, 98
    3    1 H      7-9, 16-18, 20, 25-27, 29-31, 35-37, 39-41, 46-48, 50-52,
                  56-58, 60-62, 67-69, 71-73, 77-79, 81-85, 90, 95, 97, 99-103
    4   77 Ir     19
    5    5 B      21, 42, 63
    6    8 O      22, 33, 43, 54, 64, 75, 93
    7   35 Br     92

molecular fragmentation (1/2 indicates fragments):
111111111111111111111111111111111111111111111111111111111111111111111111
1111111111111222222222222222222
# atoms in fragment 1/2:    85    18
 fragment masses (1/2) :      730.32      200.05
CMA distance (Bohr)    :   8.646
constraining FC (au)   :  0.0500

           -------------------------------------------------
          |                 G F N 2 - x T B                 |
           -------------------------------------------------

        Reference                      10.1021/acs.jctc.8b01176
      * Hamiltonian:
        H0-scaling (s, p, d)           1.850000    2.230000    2.230000
        zeta-weighting                 0.500000
      * Dispersion:
        s8                             2.700000
        a1                             0.520000
        a2                             5.000000
        s9                             5.000000
      * Repulsion:
        kExp                           1.500000    1.000000
        rExp                           1.000000
      * Coulomb:
        alpha                          2.000000
        third order                    shell-resolved
        anisotropic                    true
        a3                             3.000000
        a5                             4.000000
        cn-shift                       1.200000
        cn-exp                         4.000000
        max-rad                        5.000000

      * Solvation model:               ALPB
        Solvent                        thf
        Parameter file                 internal GFN2-xTB/ALPB
        Dielectric constant                7.6000E+00
        Reference state                gsolv [1 M gas/solution]
        Free energy shift                  5.3248E-03 Eh       3.3414E+00 kcal/mol
        Temperature                        2.9815E+02 K
        Density                            8.8300E-01 kg/L
        Solvent mass                       7.2106E+01 g/mol
        Interaction kernel             P16
        Born radius scaling (c1)           1.7311E+00
        Born radii integrator          GBOBC
        Born offset                        0.0000E+00 a0       0.0000E+00 AA
        H-bond correction              true
        Ion screening                  false
        Surface tension                    1.0000E-05 Eh       1.5569E+01 dyn/cm
        Grid points                               230 per atom
q/qsh data taken from xtbrestart
CAMM data taken from xtbrestart

          ...................................................
          :                      SETUP                      :
          :.................................................:
          :  # basis functions                 265          :
          :  # atomic orbitals                 263          :
          :  # shells                          155          :
          :  # electrons                       274          :
          :  max. iterations                   250          :
          :  Hamiltonian                  GFN2-xTB          :
          :  restarted?                       true          :
          :  GBSA solvation                   true          :
          :  PC potential                    false          :
          :  electronic temp.          300.0000000     K    :
          :  accuracy                    1.0000000          :
          :  -> integral cutoff          0.2500000E+02      :
          :  -> integral neglect         0.1000000E-07      :
          :  -> SCF convergence          0.1000000E-05 Eh   :
          :  -> wf. convergence          0.1000000E-03 e    :
          :  Broyden damping             0.4000000          :
          ...................................................

 iter      E             dE          RMSdq      gap      omega  full diag
   1   -152.2961793 -0.152296E+03  0.408E-05    0.90       0.0  T
   2   -152.2961793  0.696332E-11  0.342E-05    0.90     287.9  T
   3   -152.2961793  0.148646E-10  0.329E-05    0.90     299.6  T

   *** convergence criteria satisfied after 3 iterations ***

         #    Occupation            Energy/Eh            Energy/eV
      -------------------------------------------------------------
         1        2.0000           -0.8113989             -22.0793
       ...           ...                  ...                  ...
       131        2.0000           -0.3677738             -10.0076
       132        2.0000           -0.3532890              -9.6135
       133        2.0000           -0.3387137              -9.2169
       134        2.0000           -0.3289211              -8.9504
       135        2.0000           -0.3239395              -8.8148
       136        2.0000           -0.3169790              -8.6254
       137        2.0000           -0.3137948              -8.5388 (HOMO)
       138                         -0.2808753              -7.6430 (LUMO)
       139                         -0.2532231              -6.8906
       140                         -0.2503620              -6.8127
       141                         -0.2246843              -6.1140
       142                         -0.2167366              -5.8977
       ...                                ...                  ...
       263                          3.7494293             102.0272
      -------------------------------------------------------------
                  HL-Gap            0.0329195 Eh            0.8958 eV
             Fermi-level           -0.2973187 Eh           -8.0905 eV

 SCC (total)                   0 d,  0 h,  0 min,  0.119 sec
 SCC setup                      ...        0 min,  0.002 sec (  1.942%)
 Dispersion                     ...        0 min,  0.002 sec (  1.938%)
 classical contributions        ...        0 min,  0.000 sec (  0.134%)
 integral evaluation            ...        0 min,  0.034 sec ( 28.186%)
 iterations                     ...        0 min,  0.034 sec ( 28.777%)
 molecular gradient             ...        0 min,  0.046 sec ( 38.443%)
 printout                       ...        0 min,  0.001 sec (  0.531%)

         :::::::::::::::::::::::::::::::::::::::::::::::::::::
         ::                     SUMMARY                     ::
         :::::::::::::::::::::::::::::::::::::::::::::::::::::
         :: total energy            -150.421161629974 Eh    ::
         :: total w/o Gsasa/hb      -150.379167842466 Eh    ::
         :: gradient norm              0.032359012489 Eh/a0 ::
         :: HOMO-LUMO gap              0.895785575092 eV    ::
         ::.................................................::
         :: SCC energy              -152.296179319786 Eh    ::
         :: -> isotropic ES            0.260520364730 Eh    ::
         :: -> anisotropic ES          0.001010396250 Eh    ::
         :: -> anisotropic XC          0.029275923398 Eh    ::
         :: -> dispersion             -0.146568958313 Eh    ::
         :: -> Gsolv                  -0.053626180056 Eh    ::
         ::    -> Gelec               -0.011632392548 Eh    ::
         ::    -> Gsasa               -0.044419675851 Eh    ::
         ::    -> Ghb                 -0.002898927101 Eh    ::
         ::    -> Gshift               0.005324815444 Eh    ::
         :: repulsion energy           1.866130859255 Eh    ::
         :: add. restraining           0.000000000000 Eh    ::
         :: total charge               0.000000000000 e     ::
         :::::::::::::::::::::::::::::::::::::::::::::::::::::

           -------------------------------------------------
          |                Property Printout                |
           -------------------------------------------------

    * Orbital Energies and Occupations

         #    Occupation            Energy/Eh            Energy/eV
      -------------------------------------------------------------
         1        2.0000           -0.8113989             -22.0793
       ...           ...                  ...                  ...
       125        2.0000           -0.3959502             -10.7744
       126        2.0000           -0.3930866             -10.6964
       127        2.0000           -0.3904159             -10.6238
       128        2.0000           -0.3887133             -10.5774
       129        2.0000           -0.3836775             -10.4404
       130        2.0000           -0.3797178             -10.3326
       131        2.0000           -0.3677738             -10.0076
       132        2.0000           -0.3532890              -9.6135
       133        2.0000           -0.3387137              -9.2169
       134        2.0000           -0.3289211              -8.9504
       135        2.0000           -0.3239395              -8.8148
       136        2.0000           -0.3169790              -8.6254
       137        2.0000           -0.3137948              -8.5388 (HOMO)
       138                         -0.2808753              -7.6430 (LUMO)
       139                         -0.2532231              -6.8906
       140                         -0.2503620              -6.8127
       141                         -0.2246843              -6.1140
       142                         -0.2167366              -5.8977
       143                         -0.2095733              -5.7028
       144                         -0.1997925              -5.4366
       145                         -0.1795831              -4.8867
       146                         -0.1519631              -4.1351
       147                         -0.1318967              -3.5891
       148                         -0.1264239              -3.4402
       ...                                ...                  ...
       263                          3.7494293             102.0272
      -------------------------------------------------------------
                  HL-Gap            0.0329195 Eh            0.8958 eV
             Fermi-level           -0.2973187 Eh           -8.0905 eV

     #   Z          covCN         q      C6AA      α(0)
     1   7 N        2.541    -0.130    23.853     7.253
     2   6 C        2.956     0.078    26.259     8.405
     3   6 C        2.918    -0.042    29.043     8.837
     4   6 C        2.924    -0.021    28.529     8.759
     5   6 C        2.915    -0.042    29.052     8.839
     6   6 C        2.893     0.051    26.844     8.495
     7   1 H        0.926     0.052     2.290     2.367
     8   1 H        0.926     0.057     2.230     2.335
     9   1 H        0.926     0.045     2.379     2.412
    10   6 C        2.954     0.074    26.336     8.417
    11   7 N        2.556    -0.136    23.964     7.270
    12   6 C        2.890     0.045    26.996     8.519
    13   6 C        2.915    -0.044    29.100     8.846
    14   6 C        2.923    -0.023    28.585     8.768
    15   6 C        2.918    -0.045    29.119     8.849
    16   1 H        0.926     0.047     2.362     2.403
    17   1 H        0.926     0.051     2.313     2.378
    18   1 H        0.926     0.071     2.073     2.252
    19  77 Ir       5.935    -0.142   386.558    36.358
    20   1 H        0.977     0.080     1.975     2.196
    21   5 B        2.633     0.407    15.964     6.747
    22   8 O        1.638    -0.412    21.095     6.200
    23   6 C        3.837     0.131    18.430     6.108
    24   6 C        3.755    -0.121    22.884     6.821
    25   1 H        0.925     0.055     2.259     2.350
    26   1 H        0.925     0.045     2.379     2.412
    27   1 H        0.925     0.051     2.308     2.376
    28   6 C        3.754    -0.107    22.595     6.778
    29   1 H        0.925     0.048     2.348     2.396
    30   1 H        0.925     0.040     2.443     2.444
    31   1 H        0.925     0.024     2.671     2.556
    32   6 C        3.843     0.132    18.412     6.104
    33   8 O        1.637    -0.410    21.048     6.193
    34   6 C        3.755    -0.120    22.848     6.816
    35   1 H        0.925     0.048     2.350     2.397
    36   1 H        0.925     0.047     2.354     2.399
    37   1 H        0.925     0.051     2.305     2.374
    38   6 C        3.754    -0.118    22.823     6.812
    39   1 H        0.925     0.044     2.390     2.418
    40   1 H        0.925     0.053     2.279     2.361
    41   1 H        0.925     0.046     2.373     2.409
    42   5 B        2.613     0.415    15.975     6.770
    43   8 O        1.637    -0.378    20.429     6.101
    44   6 C        3.826     0.130    18.460     6.114
    45   6 C        3.755    -0.133    23.104     6.854
    46   1 H        0.925     0.064     2.154     2.295
    47   1 H        0.925     0.057     2.234     2.337
    48   1 H        0.925     0.054     2.268     2.355
    49   6 C        3.755    -0.121    22.868     6.819
    50   1 H        0.925     0.049     2.337     2.391
    51   1 H        0.925     0.050     2.324     2.384
    52   1 H        0.925     0.050     2.323     2.383
    53   6 C        3.823     0.129    18.468     6.115
    54   8 O        1.637    -0.392    20.698     6.141
    55   6 C        3.755    -0.120    22.855     6.817
    56   1 H        0.925     0.045     2.379     2.412
    57   1 H        0.925     0.049     2.335     2.390
    58   1 H        0.925     0.049     2.329     2.386
    59   6 C        3.755    -0.127    22.987     6.836
    60   1 H        0.925     0.060     2.203     2.321
    61   1 H        0.925     0.052     2.296     2.370
    62   1 H        0.925     0.050     2.316     2.380
    63   5 B        2.631     0.405    15.989     6.754
    64   8 O        1.638    -0.371    20.299     6.082
    65   6 C        3.837     0.126    18.508     6.120
    66   6 C        3.755    -0.134    23.135     6.858
    67   1 H        0.925     0.057     2.230     2.336
    68   1 H        0.925     0.064     2.157     2.297
    69   1 H        0.925     0.053     2.285     2.364
    70   6 C        3.755    -0.131    23.070     6.849
    71   1 H        0.925     0.066     2.132     2.284
    72   1 H        0.925     0.052     2.300     2.372
    73   1 H        0.925     0.052     2.296     2.369
    74   6 C        3.831     0.127    18.499     6.120
    75   8 O        1.637    -0.386    20.580     6.124
    76   6 C        3.755    -0.125    22.954     6.831
    77   1 H        0.925     0.052     2.292     2.367
    78   1 H        0.925     0.052     2.298     2.370
    79   1 H        0.925     0.057     2.239     2.340
    80   6 C        3.755    -0.123    22.907     6.824
    81   1 H        0.925     0.039     2.468     2.457
    82   1 H        0.925     0.051     2.305     2.374
    83   1 H        0.925     0.055     2.254     2.348
    84   1 H        0.926     0.054     2.274     2.358
    85   1 H        0.926     0.051     2.308     2.376
    86   6 C        2.883    -0.034    28.841     8.804
    87   6 C        2.939    -0.058    29.438     8.898
    88   6 C        2.922     0.060    26.660     8.467
    89   6 C        2.858     0.132    25.105     8.213
    90   1 H        0.926     0.038     2.476     2.461
    91   6 C        3.025    -0.045    29.083     8.846
    92  35 Br       1.091    -0.167   189.677    22.206
    93   8 O        1.705    -0.304    19.060     5.895
    94   6 C        2.918    -0.078    29.959     8.976
    95   1 H        0.926     0.067     2.119     2.277
    96   6 C        3.688     0.086    19.337     6.294
    97   1 H        0.926     0.043     2.409     2.427
    98   6 C        3.751    -0.126    22.975     6.836
    99   1 H        0.923     0.032     2.553     2.499
   100   1 H        0.923     0.034     2.533     2.489
   101   1 H        0.925     0.060     2.196     2.318
   102   1 H        0.925     0.061     2.192     2.315
   103   1 H        0.925     0.061     2.184     2.311

 Mol. C6AA /au·bohr⁶  :     117966.820722
 Mol. C8AA /au·bohr⁸  :    3262559.352675
 Mol. α(0) /au        :        532.503538


Wiberg/Mayer (AO) data.
largest (>0.10) Wiberg bond orders for each atom

 ---------------------------------------------------------------------------
     #   Z sym  total        # sym  WBO       # sym  WBO       # sym  WBO
 ---------------------------------------------------------------------------
     1   7 N    3.382 --     6 C    1.391     2 C    1.316    19 Ir   0.418
     2   6 C    3.979 --     3 C    1.350     1 N    1.316    10 C    1.090
     3   6 C    3.988 --     4 C    1.481     2 C    1.350     9 H    0.962
                             6 C    0.106
     4   6 C    3.984 --     3 C    1.481     5 C    1.386    84 H    0.969
     5   6 C    3.980 --     6 C    1.458     4 C    1.386     8 H    0.968
     6   6 C    3.978 --     5 C    1.458     1 N    1.391     7 H    0.957
                             3 C    0.106
     7   1 H    0.997 --     6 C    0.957
     8   1 H    0.996 --     5 C    0.968
     9   1 H    0.997 --     3 C    0.962
    10   6 C    3.979 --    15 C    1.353    11 N    1.307     2 C    1.090
    11   7 N    3.393 --    12 C    1.386    10 C    1.307    19 Ir   0.410
    12   6 C    3.974 --    13 C    1.458    11 N    1.386    18 H    0.948
                            15 C    0.105
    13   6 C    3.982 --    12 C    1.458    14 C    1.385    17 H    0.969
    14   6 C    3.983 --    15 C    1.479    13 C    1.385    85 H    0.969
    15   6 C    3.989 --    14 C    1.479    10 C    1.353    16 H    0.962
                            12 C    0.105
    16   1 H    0.997 --    15 C    0.962
    17   1 H    0.997 --    13 C    0.969
    18   1 H    0.995 --    12 C    0.948
    19  77 Ir   5.142 --    63 B    0.866    42 B    0.851    21 B    0.722
                            86 C    0.598    20 H    0.545     1 N    0.418
                            11 N    0.410
    20   1 H    0.990 --    19 Ir   0.545    86 C    0.341
    21   5 B    3.266 --    33 O    1.104    22 O    1.093    19 Ir   0.722
    22   8 O    2.188 --    21 B    1.093    23 C    0.941
    23   6 C    3.943 --    24 C    0.997    28 C    0.990    32 C    0.942
                            22 O    0.941
    24   6 C    3.994 --    23 C    0.997    26 H    0.983    27 H    0.983
                            25 H    0.982
    25   1 H    0.997 --    24 C    0.982
    26   1 H    0.997 --    24 C    0.983
    27   1 H    0.997 --    24 C    0.983
    28   6 C    3.997 --    23 C    0.990    31 H    0.985    29 H    0.984
                            30 H    0.984
    29   1 H    0.997 --    28 C    0.984
    30   1 H    0.998 --    28 C    0.984
    31   1 H    0.999 --    28 C    0.985
    32   6 C    3.940 --    38 C    0.997    34 C    0.991    23 C    0.942
                            33 O    0.938
    33   8 O    2.193 --    21 B    1.104    32 C    0.938
    34   6 C    3.994 --    32 C    0.991    36 H    0.984    35 H    0.983
                            37 H    0.981
    35   1 H    0.998 --    34 C    0.983
    36   1 H    0.997 --    34 C    0.984
    37   1 H    0.997 --    34 C    0.981
    38   6 C    3.994 --    32 C    0.997    41 H    0.984    39 H    0.983
                            40 H    0.982
    39   1 H    0.998 --    38 C    0.983
    40   1 H    0.997 --    38 C    0.982
    41   1 H    0.997 --    38 C    0.984
    42   5 B    3.342 --    43 O    1.139    54 O    1.097    19 Ir   0.851
    43   8 O    2.241 --    42 B    1.139    44 C    0.934
    44   6 C    3.933 --    45 C    0.995    49 C    0.993    53 C    0.935
                            43 O    0.934
    45   6 C    3.991 --    44 C    0.995    48 H    0.982    47 H    0.981
                            46 H    0.978
    46   1 H    0.996 --    45 C    0.978
    47   1 H    0.996 --    45 C    0.981
    48   1 H    0.996 --    45 C    0.982
    49   6 C    3.994 --    44 C    0.993    50 H    0.983    51 H    0.983
                            52 H    0.979
    50   1 H    0.997 --    49 C    0.983
    51   1 H    0.997 --    49 C    0.983
    52   1 H    0.997 --    49 C    0.979
    53   6 C    3.935 --    59 C    0.994    55 C    0.994    44 C    0.935
                            54 O    0.933
    54   8 O    2.220 --    42 B    1.097    53 C    0.933
    55   6 C    3.995 --    53 C    0.994    57 H    0.983    56 H    0.983
                            58 H    0.983
    56   1 H    0.998 --    55 C    0.983
    57   1 H    0.997 --    55 C    0.983
    58   1 H    0.996 --    55 C    0.983
    59   6 C    3.993 --    53 C    0.994    62 H    0.983    61 H    0.982
                            60 H    0.979
    60   1 H    0.996 --    59 C    0.979
    61   1 H    0.996 --    59 C    0.982
    62   1 H    0.997 --    59 C    0.983
    63   5 B    3.366 --    64 O    1.123    75 O    1.111    19 Ir   0.866
    64   8 O    2.240 --    63 B    1.123    65 C    0.933
    65   6 C    3.934 --    70 C    0.997    66 C    0.992    74 C    0.939
                            64 O    0.933
    66   6 C    3.991 --    65 C    0.992    69 H    0.983    68 H    0.980
                            67 H    0.979
    67   1 H    0.997 --    66 C    0.979
    68   1 H    0.996 --    66 C    0.980
    69   1 H    0.996 --    66 C    0.983
    70   6 C    3.991 --    65 C    0.997    72 H    0.983    73 H    0.982
                            71 H    0.981
    71   1 H    0.995 --    70 C    0.981
    72   1 H    0.996 --    70 C    0.983
    73   1 H    0.997 --    70 C    0.982
    74   6 C    3.934 --    76 C    0.996    80 C    0.991    65 C    0.939
                            75 O    0.934
    75   8 O    2.228 --    63 B    1.111    74 C    0.934
    76   6 C    3.992 --    74 C    0.996    78 H    0.983    77 H    0.983
                            79 H    0.982
    77   1 H    0.996 --    76 C    0.983
    78   1 H    0.997 --    76 C    0.983
    79   1 H    0.997 --    76 C    0.982
    80   6 C    3.995 --    74 C    0.991    81 H    0.984    83 H    0.983
                            82 H    0.983
    81   1 H    0.998 --    80 C    0.984
    82   1 H    0.997 --    80 C    0.983
    83   1 H    0.996 --    80 C    0.983
    84   1 H    0.996 --     4 C    0.969
    85   1 H    0.996 --    14 C    0.969
    86   6 C    3.942 --    87 C    1.397    88 C    1.352    19 Ir   0.598
                            20 H    0.341
    87   6 C    3.984 --    86 C    1.397    89 C    1.354    90 H    0.958
                            91 C    0.102
    88   6 C    3.929 --    91 C    1.426    86 C    1.352    92 Br   0.951
    89   6 C    3.931 --    94 C    1.367    87 C    1.354    93 O    1.053
    90   1 H    0.998 --    87 C    0.958
    91   6 C    3.985 --    94 C    1.426    88 C    1.426    95 H    0.965
                            87 C    0.102
    92  35 Br   1.121 --    88 C    0.951
    93   8 O    2.202 --    89 C    1.053    96 C    0.958
    94   6 C    3.980 --    91 C    1.426    89 C    1.367    97 H    0.965
    95   1 H    0.993 --    91 C    0.965
    96   6 C    3.940 --    98 C    1.016    99 H    0.969   100 H    0.969
                            93 O    0.958
    97   1 H    0.997 --    94 C    0.965
    98   6 C    3.990 --    96 C    1.016   101 H    0.985   103 H    0.985
                           102 H    0.983
    99   1 H    0.999 --    96 C    0.969
   100   1 H    0.999 --    96 C    0.969
   101   1 H    0.996 --    98 C    0.985
   102   1 H    0.996 --    98 C    0.983
   103   1 H    0.996 --    98 C    0.985
 ---------------------------------------------------------------------------

Topologies differ in total number of bonds
Writing topology from bond orders to xtbtopo.mol

molecular dipole:
                 x           y           z       tot (Debye)
 q only:       -0.570       0.396      -0.508
   full:       -2.989       0.729      -1.428       8.620
molecular quadrupole (traceless):
                xx          xy          yy          xz          yz          zz
 q only:        8.476       6.644      -6.997     -11.715       7.273      -1.479
  q+dip:       -1.004      11.064       0.216     -27.139      13.786       0.788
   full:       -2.044      12.321       2.712     -29.522      10.550      -0.668


           -------------------------------------------------
          | TOTAL ENERGY             -150.421161629974 Eh   |
          | GRADIENT NORM               0.032359012489 Eh/α |
          | HOMO-LUMO GAP               0.895785575092 eV   |
           -------------------------------------------------

------------------------------------------------------------------------
 * finished run on 2021/10/08 at 07:29:34.927     
------------------------------------------------------------------------
 total:
 * wall-time:     0 d,  0 h,  0 min,  0.167 sec
 *  cpu-time:     0 d,  0 h,  0 min,  0.974 sec
 * ratio c/w:     5.849 speedup
 SCF:
 * wall-time:     0 d,  0 h,  0 min,  0.121 sec
 *  cpu-time:     0 d,  0 h,  0 min,  0.720 sec
 * ratio c/w:     5.963 speedup

