103
 energy: -150.389001915011 gnorm: 0.078897851701 xtb: 6.4.0 (f63f532)
N        -0.96510000000000   -2.11530000000000   -0.24090000000000
C        -2.24700000000000   -1.69840000000000   -0.36220000000000
C        -3.14040000000000   -2.36820000000000   -1.21200000000000
C        -2.70220000000000   -3.47560000000000   -1.93050000000000
C        -1.37780000000000   -3.89880000000000   -1.78760000000000
C        -0.54290000000000   -3.18670000000000   -0.93510000000000
H         0.49810000000000   -3.45630000000000   -0.78940000000000
H        -0.99570000000000   -4.76030000000000   -2.32770000000000
H        -4.16500000000000   -2.02890000000000   -1.31830000000000
C        -2.62130000000000   -0.50950000000000    0.44100000000000
N        -1.62600000000000    0.07330000000000    1.16020000000000
C        -1.89680000000000    1.15240000000000    1.91690000000000
C        -3.17230000000000    1.70330000000000    1.99650000000000
C        -4.20510000000000    1.11740000000000    1.26270000000000
C        -3.92610000000000    0.00250000000000    0.47820000000000
H        -4.71960000000000   -0.46420000000000   -0.09520000000000
H        -3.34630000000000    2.57510000000000    2.62070000000000
H        -1.04450000000000    1.57420000000000    2.43690000000000
Ir        0.42150000000000   -0.81650000000000    0.91330000000000
H         0.87260000000000   -2.23030000000000    1.54050000000000
B         0.50670000000000    0.41560000000000   -0.81540000000000
O         0.19500000000000   -0.04700000000000   -2.09150000000000
C         0.00650000000000    1.10040000000000   -2.95430000000000
C         0.49020000000000    0.74740000000000   -4.35780000000000
H         1.51610000000000    0.37380000000000   -4.33700000000000
H         0.44730000000000    1.62240000000000   -5.01670000000000
H        -0.14740000000000   -0.03390000000000   -4.78430000000000
C        -1.50120000000000    1.39560000000000   -2.96670000000000
H        -1.75370000000000    2.21460000000000   -3.64850000000000
H        -2.03200000000000    0.49450000000000   -3.28930000000000
H        -1.85170000000000    1.65210000000000   -1.96220000000000
C         0.84230000000000    2.20670000000000   -2.22040000000000
O         0.75200000000000    1.78260000000000   -0.83690000000000
C         2.32930000000000    2.18620000000000   -2.59900000000000
H         2.74130000000000    1.18500000000000   -2.45750000000000
H         2.48870000000000    2.51300000000000   -3.63180000000000
H         2.87200000000000    2.86270000000000   -1.93200000000000
C         0.28440000000000    3.62290000000000   -2.33660000000000
H        -0.72650000000000    3.69040000000000   -1.92910000000000
H         0.92130000000000    4.31480000000000   -1.77610000000000
H         0.26430000000000    3.94810000000000   -3.38320000000000
B         1.56300000000000    0.60960000000000    1.84840000000000
O         2.92780000000000    0.55230000000000    2.15020000000000
C         3.36330000000000    1.88660000000000    2.50260000000000
C         4.53140000000000    1.78590000000000    3.47740000000000
H         4.27910000000000    1.16090000000000    4.33690000000000
H         5.39390000000000    1.33790000000000    2.97340000000000
H         4.82390000000000    2.77870000000000    3.83820000000000
C         3.79700000000000    2.56850000000000    1.19670000000000
H         4.20020000000000    3.57090000000000    1.37680000000000
H         4.56740000000000    1.95560000000000    0.72110000000000
H         2.95240000000000    2.63260000000000    0.50540000000000
C         2.05040000000000    2.50090000000000    3.09320000000000
O         1.03750000000000    1.81620000000000    2.31910000000000
C         1.89100000000000    4.00450000000000    2.88650000000000
H         1.87290000000000    4.25440000000000    1.82410000000000
H         0.94940000000000    4.34260000000000    3.33170000000000
H         2.71080000000000    4.55150000000000    3.36630000000000
C         1.82470000000000    2.13200000000000    4.56520000000000
H         1.92610000000000    1.05330000000000    4.71320000000000
H         2.52610000000000    2.65280000000000    5.22540000000000
H         0.80630000000000    2.41580000000000    4.84900000000000
B         2.27820000000000   -1.33090000000000    0.17410000000000
O         2.89460000000000   -2.57740000000000    0.38450000000000
C         4.26930000000000   -2.48200000000000   -0.07210000000000
C         5.10900000000000   -2.05380000000000    1.14010000000000
H         4.76350000000000   -1.08740000000000    1.51750000000000
H         4.98050000000000   -2.79470000000000    1.93590000000000
H         6.17420000000000   -1.99290000000000    0.89300000000000
C         4.71950000000000   -3.84660000000000   -0.58470000000000
H         4.75280000000000   -4.56130000000000    0.24420000000000
H         5.72330000000000   -3.78370000000000   -1.02010000000000
H         4.03500000000000   -4.23600000000000   -1.34170000000000
C         4.16440000000000   -1.36220000000000   -1.16300000000000
O         3.08520000000000   -0.55030000000000   -0.65400000000000
C         5.40720000000000   -0.48870000000000   -1.31550000000000
H         6.27320000000000   -1.09010000000000   -1.61530000000000
H         5.23300000000000    0.26930000000000   -2.08590000000000
H         5.64270000000000    0.02650000000000   -0.38240000000000
C         3.71800000000000   -1.89830000000000   -2.53110000000000
H         2.82530000000000   -2.52160000000000   -2.42740000000000
H         3.46090000000000   -1.05250000000000   -3.17550000000000
H         4.50570000000000   -2.48290000000000   -3.01790000000000
H        -3.38500000000000   -4.00130000000000   -2.59310000000000
H        -5.21400000000000    1.52080000000000    1.29960000000000
C         0.23590000000000   -1.68140000000000    2.96030000000000
C        -1.01759208398589   -2.11927581862041    3.41507072318909
C         1.26367405289301   -1.92737867916345    3.88758916128919
C        -1.23999652516566   -2.71796964623381    4.66133601413388
H        -1.88325908479502   -2.04327308842797    2.76810271252642
C         1.06955075760674   -2.47682002040976    5.14567242114587
Br        3.12564779792294   -1.76363064735216    3.59049062499810
O        -2.49808367063085   -3.16984988946891    4.96152334388230
C        -0.18097617499593   -2.89437003790040    5.54646641969791
H         1.92295327422865   -2.65341459985292    5.78726571212572
C        -2.58623574469864   -3.98969507743761    6.12636363217364
H        -0.26746161661650   -3.38355045814515    6.50309596936193
C        -4.01933393425643   -4.42576506812149    6.36749490786012
H        -2.23615403075050   -3.43056178167264    7.00238274143167
H        -1.94215634810578   -4.86859328759255    5.99032365631036
H        -4.63923143811755   -3.56186640233783    6.60331570568657
H        -4.03119635060447   -5.11417836867629    7.21208243906133
H        -4.42062918297559   -4.92711308838612    5.48839724714380
103
 energy: -150.398138609696 gnorm: 0.049173767026 xtb: 6.4.0 (f63f532)
N        -0.96173653553323   -2.10117799748010   -0.25079964329678
C        -2.23927744521041   -1.69006887548020   -0.36409775519896
C        -3.13404414927403   -2.36248887300143   -1.20554979490117
C        -2.70356300786497   -3.46442162346296   -1.92112865966093
C        -1.38386220834216   -3.88355942121784   -1.78199495541880
C        -0.55387898356318   -3.16904721422721   -0.93982562431228
H         0.48046560756131   -3.44843940954320   -0.79130487558652
H        -1.00700056901718   -4.74337647827244   -2.31745075613723
H        -4.15457305023170   -2.02693628041679   -1.30991434350140
C        -2.61109934251133   -0.51092460682764    0.43425673283763
N        -1.61889621241121    0.07327420500064    1.14195022262262
C        -1.89821359953237    1.14132722913629    1.89289775051425
C        -3.16598636156997    1.68827726233755    1.98413501436208
C        -4.19656652985511    1.10378043700503    1.25713313333609
C        -3.91489888536874   -0.00299039526541    0.47670018172739
H        -4.70653265091525   -0.46735997192903   -0.09115515613506
H        -3.34081575496842    2.55149074196308    2.61110098995690
H        -1.05531410728260    1.56030977139939    2.42217641432425
Ir        0.42150000000000   -0.81650000000000    0.91330000000000
H         0.87260000000000   -2.23030000000000    1.54050000000000
B         0.49687462924608    0.41922853402822   -0.79410507186109
O         0.17631539240427   -0.03769372483028   -2.06565023292316
C         0.01012015626981    1.09586518232191   -2.94427235586050
C         0.48877067423411    0.74743988213223   -4.34970013681559
H         1.50806404822487    0.37133298922049   -4.32888294186555
H         0.44350782499547    1.62308639627172   -4.99786893439597
H        -0.14962289399728   -0.02868603710247   -4.77061342093487
C        -1.49450848151051    1.39787238346234   -2.96886643034521
H        -1.73417549500267    2.21121904888568   -3.65210696506680
H        -2.02496148275574    0.50100556188917   -3.28921915409565
H        -1.84142514598277    1.65258188413316   -1.96706438915670
C         0.83232908690610    2.20538721176138   -2.21246586078608
O         0.75588737927750    1.77607570510520   -0.83561407731717
C         2.31517867546674    2.19025196033562   -2.59977836119525
H         2.72105906942509    1.19148138658339   -2.45129909853018
H         2.46695974041594    2.51269084554221   -3.62915327871497
H         2.85747510133490    2.86467942862341   -1.93797343900525
C         0.28021611899918    3.62168970888942   -2.33819906683595
H        -0.72346490829782    3.69084491013778   -1.92656096036899
H         0.91943883425332    4.30567413638498   -1.78127998078060
H         0.26274033313696    3.93519479270940   -3.38213198272873
B         1.55571803746698    0.63729297698001    1.83956001728824
O         2.91759050275435    0.59542102783070    2.10331892083874
C         3.36092004614944    1.90491813352378    2.50182170385782
C         4.52950056269397    1.79353279311519    3.47397215866914
H         4.27814178768429    1.16015026973142    4.32038144256312
H         5.38260713552108    1.34524039148291    2.96747294962409
H         4.81648550574075    2.78078607923082    3.83493300748705
C         3.79959334542457    2.58741736572846    1.20361299495707
H         4.20387024452742    3.58091247399848    1.38845064111451
H         4.56236649125048    1.97011680798408    0.73126883289049
H         2.95218825083914    2.63935729941013    0.52097131381539
C         2.04903958833422    2.51297906492529    3.08802536343099
O         1.03078766546580    1.82225877835268    2.33511484818355
C         1.89098916539684    4.01413232947181    2.89039598959979
H         1.86667960196942    4.25694735103531    1.83175052179231
H         0.95360331396311    4.34270130950792    3.33745570444800
H         2.71318086825521    4.54724148797347    3.36671351970948
C         1.83105523209641    2.14206005536667    4.55969358776521
H         1.93794645135796    1.06710901852604    4.69933044820943
H         2.53273299185175    2.66095335601188    5.20961199450712
H         0.81624502571357    2.41723801114702    4.84785117290681
B         2.27820000000000   -1.33090000000000    0.17410000000000
O         2.90680063446774   -2.55874588831990    0.38965653300716
C         4.27014386279611   -2.48396470321318   -0.09113650471358
C         5.14842709479682   -2.06133760837359    1.08870843946293
H         4.80521429396924   -1.10068931466142    1.46710432050320
H         5.03197276896249   -2.79516817683019    1.88381845240994
H         6.20114948157760   -2.00323538102377    0.82535140476588
C         4.71821628500926   -3.84875390571991   -0.59666982881244
H         4.75036428831779   -4.54754811967372    0.23823559296663
H         5.71561320262554   -3.77831299903416   -1.02902515543044
H         4.03049371367559   -4.23857848548339   -1.34230865182695
C         4.16303004354605   -1.35770021458836   -1.16489330513714
O         3.07041237314750   -0.56236147208270   -0.66397999839331
C         5.40675744404309   -0.48969586474201   -1.31946091050073
H         6.26269304518206   -1.09577413161413   -1.61480613094795
H         5.22991423680404    0.26311341295781   -2.08650042961645
H         5.63497058221709    0.02136961779936   -0.38848717747076
C         3.72439154015283   -1.89718087150060   -2.53169015263768
H         2.83348080733554   -2.51436919985378   -2.42185554653888
H         3.46678993882731   -1.05602457631078   -3.17386228807906
H         4.51500689513832   -2.47446309666235   -3.00805942802923
H        -3.38280252810693   -3.98911174633183   -2.57937098434947
H        -5.20068823128041    1.50473042720635    1.29771028318368
C         0.23590000000000   -1.68140000000000    2.96030000000000
C        -1.02233960826023   -2.11827610308512    3.40993081309117
C         1.25690988762791   -1.92020403412507    3.90156702400591
C        -1.24982284861292   -2.71251776486891    4.65874674567427
H        -1.88348382639594   -2.04633466693693    2.75915129041568
C         1.05182881778579   -2.46450313233896    5.15743134547304
Br        3.12002191065960   -1.74232157310012    3.61737241219855
O        -2.50924569654435   -3.16720684340402    4.95331758038244
C        -0.19568744117201   -2.88226406749651    5.54870359836253
H         1.89919900116723   -2.63543408992157    5.80488333659304
C        -2.60225527983248   -3.98417351139660    6.11935376587439
H        -0.28720302620287   -3.36673238977781    6.50441753603078
C        -4.03525607269295   -4.42381501010617    6.35356874611597
H        -2.25854476506685   -3.42138776137582    6.99672510345935
H        -1.95395340819093   -4.86251620882200    5.98917992663467
H        -4.65798519579981   -3.56346612111032    6.58315721104038
H        -4.04927802321027   -5.10888817084323    7.19845138937030
H        -4.42934354941031   -4.92787137640320    5.47604035293852
103
 energy: -150.401901651547 gnorm: 0.040223240505 xtb: 6.4.0 (f63f532)
N        -0.95437467582342   -2.09354798737566   -0.25744304177881
C        -2.22851301236846   -1.68290747844032   -0.36659888617097
C        -3.12819271631717   -2.35458079805046   -1.20193529691529
C        -2.70663951026616   -3.45409073136780   -1.91690699215246
C        -1.38805695291300   -3.87313608197675   -1.78171808173116
C        -0.55930570559992   -3.15862312918607   -0.94485966855353
H         0.47280565070773   -3.44347907077535   -0.80277889824087
H        -1.01693297470951   -4.73243184152914   -2.31439186825547
H        -4.14696021077727   -2.02058783501748   -1.29881953900395
C        -2.59713328335478   -0.51219213780990    0.42629232694806
N        -1.60818818827679    0.07040576175345    1.13113001907709
C        -1.89516796187903    1.13078629973546    1.87755459080980
C        -3.15874543202333    1.67583502516628    1.97520407109226
C        -4.18900983442690    1.09067805205270    1.25031185435142
C        -3.90227494824009   -0.00896753310053    0.47057045993563
H        -4.69175325634586   -0.47648699846648   -0.09212365345731
H        -3.33489733943150    2.53229638345180    2.60464259637557
H        -1.05886285968870    1.55605584560822    2.40830197603387
Ir        0.42150000000000   -0.81650000000000    0.91330000000000
H         0.87260000000000   -2.23030000000000    1.54050000000000
B         0.49408645332093    0.42601383534434   -0.77364185695965
O         0.15504536867106   -0.02993821170045   -2.03811770634234
C         0.00579563800122    1.09148684084817   -2.92666359157633
C         0.48778537277492    0.74127037412850   -4.33072743666578
H         1.50309556403726    0.36239410243316   -4.31196137040295
H         0.44105873710343    1.62075417021148   -4.96703812093916
H        -0.15407891858455   -0.02836443499826   -4.75021416210384
C        -1.49693287251337    1.40262572466231   -2.96911764418518
H        -1.71859528486818    2.21241385632827   -3.65654887397603
H        -2.02666140693621    0.50857580848935   -3.29022883907414
H        -1.84446701621612    1.65922688289350   -1.97067845522143
C         0.82344856488456    2.20269239333704   -2.20003471435090
O         0.75927423635500    1.77489098529528   -0.82895901048442
C         2.30334901588906    2.19417238179022   -2.59819408383868
H         2.70645959716405    1.19732997713915   -2.44356255305468
H         2.44162161476866    2.51072412237327   -3.62746860427278
H         2.84506768770750    2.87199980076353   -1.94385832101972
C         0.27011930268304    3.61803443420906   -2.33375636205847
H        -0.72896728331346    3.69295404483130   -1.91887823785187
H         0.91451948812480    4.29890979182009   -1.78518857221906
H         0.25432095583950    3.91547785602984   -3.37829605255634
B         1.55056394723668    0.65751838073172    1.84027686490540
O         2.90878685459045    0.62762886060608    2.06068616350026
C         3.35476796635892    1.91954465725816    2.49133257020756
C         4.52031966679549    1.79840560978492    3.46670585204213
H         4.27118025049829    1.15608789242969    4.30314886401092
H         5.36839581516562    1.35477429681625    2.95521197013087
H         4.80027437793381    2.78244025160769    3.82958582314886
C         3.80362946955900    2.62334663823333    1.20846776810316
H         4.20828605768762    3.61080599695873    1.40028807396695
H         4.56272495073308    2.00423181194248    0.73845455596638
H         2.95633943957994    2.66943935808579    0.52911108771803
C         2.04726306955527    2.52436849624273    3.08461202474759
O         1.02595222637628    1.82607394434198    2.35108119822908
C         1.88846230468187    4.02552970021482    2.89178198183641
H         1.85628616223870    4.26746816500425    1.83594067211600
H         0.95677790710079    4.34927874608272    3.34590512820339
H         2.71502954506338    4.54689768493191    3.36371164195152
C         1.84413970361644    2.15622872233127    4.55979609036352
H         1.95880465498531    1.08345039660139    4.69126528572080
H         2.54788743623112    2.67766777258809    5.19851485659033
H         0.83094665765568    2.42271466879929    4.85213570639789
B         2.27820000000000   -1.33089999999999    0.17410000000001
O         2.92019333983665   -2.53894003952289    0.40491867220606
C         4.26918413703787   -2.47934952934465   -0.10380001717729
C         5.17873962249234   -2.06716973596635    1.05523161506320
H         4.84828240646098   -1.10786115693207    1.44032205754248
H         5.07977812634582   -2.79494657216168    1.85414329358426
H         6.21831706190940   -2.01683818970907    0.75384699832896
C         4.70489472197814   -3.84700766334716   -0.61469904022279
H         4.74001077263104   -4.53444316788614    0.22491088782530
H         5.69729401772372   -3.77205716819415   -1.04705537426449
H         4.01486992246259   -4.24070108495406   -1.35178985332137
C         4.15443477479368   -1.35546498686795   -1.17402299609344
O         3.05122205478320   -0.57406351028436   -0.68021135218047
C         5.39720326303214   -0.48611940613013   -1.32681517730941
H         6.24506916007303   -1.09915488470114   -1.61571987958461
H         5.22135502454203    0.26021224114494   -2.09536725784912
H         5.62111888469741    0.02555149540118   -0.39869543880271
C         3.72825935411655   -1.89663466246488   -2.54390300272055
H         2.83966786879782   -2.51155060580983   -2.42988671771232
H         3.47238352331213   -1.05888944546817   -3.18676526648512
H         4.52527389145464   -2.46894813893632   -3.00612058322665
H        -3.38697920556150   -3.97915695172438   -2.56821723035731
H        -5.19176565559999    1.48575964158868    1.29606473547895
C         0.23590000000000   -1.68139999999999    2.96029999999999
C        -1.02571957826965   -2.11857784207949    3.40244422231101
C         1.25812892689332   -1.91009713568091    3.90373151589210
C        -1.25924281456415   -2.70418279727054    4.65381633138631
H        -1.88153910647606   -2.05355935770779    2.74531667126399
C         1.04195412188893   -2.44440847911074    5.16245451007080
Br        3.11631629168405   -1.69416241221883    3.56294681867051
O        -2.52151920082168   -3.16059244661035    4.94033484428778
C        -0.20771016517275   -2.86010849207586    5.54869579001188
H         1.88006677959405   -2.60074320632191    5.82420048373742
C        -2.62788990794038   -3.97317050574073    6.10772548338990
H        -0.30751842982095   -3.33365161944534    6.50800535911453
C        -4.06218077192206   -4.41879447991455    6.32616676270804
H        -2.29745128656531   -3.40550537895336    6.98788708813118
H        -1.97387631140394   -4.85016231771992    5.98935619637201
H        -4.69155003111253   -3.56183517113399    6.54434553330726
H        -4.08218262019507   -5.09944823761629    7.17340520425118
H        -4.44292605720356   -4.92884821491097    5.44769073362740
103
 energy: -150.404430660158 gnorm: 0.039129607083 xtb: 6.4.0 (f63f532)
N        -0.94395660650366   -2.09121533964655   -0.26591237589306
C        -2.21802462382796   -1.67924009496029   -0.37081926389769
C        -3.12393770002740   -2.34977134451166   -1.20152180289262
C        -2.70974294730372   -3.45006783410910   -1.91749802840282
C        -1.38932953535673   -3.87040530178671   -1.78817311030905
C        -0.55650108651912   -3.15558380385473   -0.95552866599625
H         0.47567282443627   -3.44476989957526   -0.82051997156030
H        -1.02309331185885   -4.73071305754340   -2.32061445941026
H        -4.14244249669518   -2.01365376371971   -1.29093549773884
C        -2.58441111115503   -0.51294458497939    0.42010872835608
N        -1.59652511001654    0.07016194177006    1.12562457632469
C        -1.88843836796302    1.12883441743845    1.87004098373573
C        -3.15308204877560    1.66995693277009    1.97146695388484
C        -4.18411313307379    1.08122234726708    1.24704356523026
C        -3.89216050334227   -0.01413384064038    0.46526081278112
H        -4.67923392230131   -0.48568525049983   -0.09685754844098
H        -3.33135146503719    2.52251926823851    2.60366299414541
H        -1.05612376378788    1.56069722824645    2.40201390537033
Ir        0.42150000000000   -0.81650000000000    0.91330000000000
H         0.87259999999999   -2.23030000000000    1.54050000000000
B         0.48804176327743    0.43614102885350   -0.75604301925088
O         0.13340498319674   -0.02407157785890   -2.01436885915687
C        -0.00358244069559    1.08905329354885   -2.90832578817219
C         0.48529239768359    0.73178214056368   -4.30916482768679
H         1.49865765524908    0.34862720921956   -4.28836099073687
H         0.44250926011489    1.61398690779838   -4.94076451932984
H        -0.16019207465485   -0.03356800322004   -4.73000831313442
C        -1.50512870608950    1.40939125012488   -2.96775921100002
H        -1.71040790319797    2.21776451571927   -3.66090798663867
H        -2.03545764005763    0.51705653296637   -3.29148908336098
H        -1.85936468597867    1.67131136619221   -1.97347066683261
C         0.81538226438939    2.20209992220091   -2.18659615795808
O         0.76167454331316    1.78001901799713   -0.81791141433812
C         2.29337292416327    2.19776292963677   -2.59558162781617
H         2.69875839494564    1.20287848399975   -2.43578051890535
H         2.41930527769987    2.50749897272314   -3.62778829128957
H         2.83567833002052    2.88285035208638   -1.94986975206674
C         0.25881816540562    3.61667533222770   -2.32626176908008
H        -0.73803874772204    3.69636357436526   -1.90755626716145
H         0.90800653866347    4.30036362498518   -1.78748622837595
H         0.23986543493835    3.90075527671610   -3.37380950595051
B         1.54581629035509    0.68226038368352    1.82573704710981
O         2.90256810834727    0.66234018758773    2.01329893071005
C         3.34804121546090    1.94070508953670    2.47471803073899
C         4.51087145185531    1.80194592758768    3.45356261462514
H         4.26095352486080    1.14855086205237    4.28099384285910
H         5.35911866082277    1.36537117079392    2.93674091114326
H         4.78731980416667    2.78205999504074    3.82753607255289
C         3.80754145542784    2.66976663573352    1.20753607570835
H         4.21073348965663    3.65347922022626    1.41583047738913
H         4.56949582019485    2.05523756331762    0.73635998824520
H         2.96395220010159    2.72224542133826    0.52476567282957
C         2.04225408307656    2.53656677842173    3.08212919056177
O         1.01652780410281    1.83336488284756    2.36311250525830
C         1.88109937263601    4.03907500700992    2.89338449466824
H         1.83950215712379    4.28494078305755    1.83887625031625
H         0.95504222604490    4.36171211410621    3.35875036960111
H         2.71406710282872    4.55407238037563    3.35959825565977
C         1.85898539902676    2.17003374579868    4.56186248812253
H         1.98264368355581    1.09806014370072    4.68997511694764
H         2.56629521881797    2.69768911106370    5.19055188636851
H         0.84672460704479    2.42939565308807    4.86228577526585
B         2.27820000000001   -1.33089999999999    0.17410000000002
O         2.93373527652256   -2.52363330763041    0.42345620523222
C         4.26849211307816   -2.47446351677499   -0.11656954126133
C         5.21842774379949   -2.07084033346961    1.01634213666585
H         4.91195224209502   -1.10649482693640    1.40882074112380
H         5.13882885171794   -2.79595418204618    1.81999854070928
H         6.24720187577910   -2.03324211754823    0.67308338282102
C         4.68678249087446   -3.84747031715481   -0.63384739132084
H         4.72746316180105   -4.53049169691691    0.20857854028731
H         5.67488797056093   -3.77497462781901   -1.07499693873024
H         3.98867738821578   -4.24114512536222   -1.36279877619863
C         4.14315051280953   -1.35286756595595   -1.18798683138604
O         3.03140291059226   -0.58168739367638   -0.70086796030725
C         5.38324238110584   -0.47719623790080   -1.33772665933791
H         6.23012095679411   -1.09405049665557   -1.61934383755328
H         5.20989200029441    0.26372353477664   -2.11112375091024
H         5.60281716769983    0.03884799324159   -0.41138259305845
C         3.73040155345060   -1.89849531708524   -2.56109474947296
H         2.84324575753316   -2.51508244772403   -2.45032301851638
H         3.47854639240469   -1.06236906139903   -3.20700133755133
H         4.53510137079055   -2.46817690426802   -3.01145044218281
H        -3.39439637199905   -3.97516500699634   -2.56336879796782
H        -5.18850092954284    1.47016928474287    1.29656019982599
C         0.23590000000001   -1.68139999999998    2.96029999999999
C        -1.02875882185024   -2.11847700529469    3.39218983226799
C         1.25227548229068   -1.89400108540744    3.91319421211932
C        -1.27032014335171   -2.69263465577762    4.64706016468172
H        -1.87812076157733   -2.06296828116415    2.72571421365805
C         1.02897137551168   -2.41502443273209    5.17333596933572
Br        3.11441439091057   -1.70105217023533    3.58993089327460
O        -2.53493994379136   -3.15092692627007    4.92325521189755
C        -0.22416484232839   -2.83230253560372    5.55173708786772
H         1.86363468210291   -2.56031983902038    5.84203324331775
C        -2.65603766886242   -3.95771829243220    6.09296417383954
H        -0.33474547780703   -3.29369461054779    6.51632531620408
C        -4.09247930254957   -4.41049398129342    6.28986724472091
H        -2.34235407693681   -3.38417853679831    6.97599803424955
H        -1.99603449217832   -4.83265793522020    5.98979244450236
H        -4.73162257775654   -3.55655451932327    6.49251311430903
H        -4.12245035802723   -5.08633281043594    7.14086600160501
H        -4.45581813178023   -4.92858827015510    5.40821903469336
103
 energy: -150.406863278360 gnorm: 0.038266401335 xtb: 6.4.0 (f63f532)
N        -0.93264542839945   -2.09334785716004   -0.27557718669945
C        -2.20821614975566   -1.67928457349640   -0.37591933232174
C        -3.11935454707106   -2.34855853175477   -1.20368306945567
C        -2.71123951672262   -3.45040547962932   -1.92131227085667
C        -1.38858117353530   -3.87170528948308   -1.79939204927365
C        -0.54947660391061   -3.15708079617533   -0.97073285030050
H         0.48353454495043   -3.44955475014877   -0.84285942181175
H        -1.02650212822154   -4.73304279386294   -2.33398852373688
H        -4.13764699253450   -2.00835493146869   -1.28748091693087
C        -2.57312518534748   -0.51462472760835    0.41598907980099
N        -1.58499287950820    0.07017552712073    1.12360366159616
C        -1.88026728118717    1.13092894038410    1.86681078932777
C        -3.14795314613202    1.66671095989143    1.97029438774687
C        -4.17948479013171    1.07371974115341    1.24651284398945
C        -3.88294251420543   -0.01838325111458    0.46159726302345
H        -4.66742879032682   -0.49240228774624   -0.10318285814201
H        -3.32857077792655    2.51735929928152    2.60489799195041
H        -1.05064816498798    1.56845419703591    2.39984160084156
Ir        0.42150000000000   -0.81650000000000    0.91330000000001
H         0.87259999999999   -2.23030000000000    1.54050000000000
B         0.47877871284873    0.44891068050820   -0.73913603546808
O         0.10774025821249   -0.01646008300151   -1.99118133795588
C        -0.01718740649818    1.08954597030510   -2.89019536009387
C         0.47949725577102    0.72025839235271   -4.28621371199513
H         1.49043150802709    0.32948293196800   -4.25631762815431
H         0.44773451428870    1.60128310220482   -4.92142842274454
H        -0.16916408349839   -0.04264587028507   -4.70841000483891
C        -1.51712831932851    1.41940031745912   -2.96599060096264
H        -1.70773115050372    2.22654593950732   -3.66566983451483
H        -2.04958086841625    0.52881498945335   -3.29260410929150