17
 energy: -24.897292211309 gnorm: 0.043821688427 xtb: 6.4.1 (1a32961)
C        -1.57330000000000    0.03597000000000   -0.01716000000000
C        -1.37317000000000    1.40343000000000   -0.01278000000000
C         0.02187000000000    1.63539000000000    0.01049000000000
C         0.64737000000000    0.40560000000000    0.01483000000000
C         2.04897000000000    0.15785000000000    0.01073000000000
N         3.18311000000000   -0.08994000000000    0.00024000000000
N        -0.32939000000000   -0.56295000000000    0.01424000000000
C        -0.10277000000000   -1.99480000000000    0.02489000000000
C        -2.84639000000000   -0.73321000000000   -0.05723000000000
H        -2.15250000000000    2.15571000000000   -0.03382000000000
H         0.51550000000000    2.59948000000000    0.01183000000000
H         0.96546000000000   -2.21441000000000    0.07136000000000
H        -0.52125000000000   -2.41358000000000   -0.89359000000000
H        -0.59601000000000   -2.41526000000000    0.90495000000000
H        -3.70968000000000   -0.06036000000000   -0.07800000000000
H        -2.94037000000000   -1.37458000000000    0.82456000000000
H        -2.88762000000000   -1.35989000000000   -0.95382000000000
17
 energy: -24.899882685030 gnorm: 0.021345502624 xtb: 6.4.1 (1a32961)
C        -1.55918261883097    0.04072681651733   -0.01855715529684
C        -1.36416675461680    1.40736611726589   -0.01755469810643
C         0.01690781022807    1.64494883006304    0.00407299447810
C         0.63687547402044    0.40731900960508    0.02012362762423
C         2.01407154353002    0.14625969255206    0.03702586480309
N         3.13796415116361   -0.09177719758335   -0.00989197710494
N        -0.33424176646771   -0.56240982591739    0.00901665096552
C        -0.11259412658127   -1.98937883835506    0.02038933078636
C        -2.82583537358160   -0.73418330850734   -0.05452018532373
H        -2.13726374037519    2.15328674308226   -0.03379747834917
H         0.50803314001890    2.60135781626031    0.00955572065114
H         0.95622067008873   -2.19110799428733    0.06746981923191
H        -0.52184008134340   -2.43504829423032   -0.88786458519157
H        -0.59766984262212   -2.43052336378463    0.89270933716669
H        -3.67426007875948   -0.05219392089952   -0.07406037266231
H        -2.92136307168457   -1.37636294758317    0.82218397544638
H        -2.87182533418666   -1.36382933419787   -0.94458086911843
17
 energy: -24.899226810606 gnorm: 0.020203726269 xtb: 6.4.1 (1a32961)
C        -1.55050895308243    0.04315435070932   -0.01303507068501
C        -1.36165487902523    1.41081229637840   -0.01355994012667
C         0.00999117675106    1.65281439765881    0.00417939110657
C         0.62967101202002    0.41010340301747    0.00762011060754
C         1.98988582441558    0.14089897452434   -0.04078617517024
N         3.10965802307474   -0.11997295102592    0.07646023682256
N        -0.33925877455220   -0.55980505384704    0.00610568145381
C        -0.11606881061112   -1.98001011612160    0.01488498480432
C        -2.81338983500255   -0.73537070709224   -0.04889133535732
H        -2.13226938725029    2.15194036588835   -0.02981278632669
H         0.50146214038480    2.60317872429636    0.00220566968424
H         0.95445297616998   -2.16823425098884    0.05664294778517
H        -0.52371473271790   -2.44263649308833   -0.88542423889403
H        -0.59171044827284   -2.43722955613294    0.88400054184816
H        -3.65368388156914   -0.04954538881476   -0.06751586337206
H        -2.90524139976047   -1.37929211658931    0.82419027853861
H        -2.85779005097200   -1.36635587877204   -0.93554443271903
17
 energy: -24.900341129118 gnorm: 0.007077088648 xtb: 6.4.1 (1a32961)
C        -1.55281269507130    0.04242613252715   -0.01923009719014
C        -1.36282555202270    1.41095302228029   -0.01992781901995
C         0.01087728686854    1.65062375317080    0.00243057131117
C         0.63094873918018    0.40741599469849    0.01712217140668
C         1.99197899944035    0.12956486614625    0.02603781693559
N         3.11710611487317   -0.10986028423073    0.01528909747711
N        -0.34116030263228   -0.56008992674324    0.00420163626524
C        -0.11508906090653   -1.97890808718716    0.01610401816780
C        -2.81711230143969   -0.73490242614975   -0.05103669993673
H        -2.13439392843336    2.15345826456799   -0.03480464438313
H         0.50507015755058    2.60083368312224    0.00778147595972
H         0.95594956632278   -2.16761117091414    0.06034729504202
H        -0.52081786594502   -2.43973253347571   -0.88645029285525
H        -0.59367838243777   -2.43361960338724    0.88526717554166
H        -3.65988777066439   -0.05122422042149   -0.06929901889416
H        -2.90451768651753   -1.37686409961091    0.82470440806414
H        -2.85980531816501   -1.36801336439282   -0.93681709389178
17
 energy: -24.900389337189 gnorm: 0.003126735183 xtb: 6.4.1 (1a32961)
C        -1.55539758176956    0.04235944891256   -0.02059804624298
C        -1.36433883201906    1.41143900709422   -0.02018449951017
C         0.01117446467192    1.65000921372094    0.00098763180245
C         0.63236110704829    0.40766209744465    0.01460197423845
C         1.99589488081773    0.12720561954338    0.02634571619748
N         3.12320117802126   -0.11159152573239    0.02253430236468
N        -0.34166496651295   -0.55933673478892    0.00244899805774
C        -0.11308778570434   -1.97839527714735    0.01477455292466
C        -2.82068535805455   -0.73487539352554   -0.05025983581372
H        -2.13689222560543    2.15472457167880   -0.03453824384937
H         0.50723417303125    2.60068890980842    0.00699270264059
H         0.95802174736013   -2.16823577201423    0.05815412390580
H        -0.51966441549100   -2.43757615936578   -0.88845891745503
H        -0.59072803077155   -2.43140412796510    0.88559636258417
H        -3.66611033107190   -0.05352308274305   -0.06772667665361
H        -2.90563513885610   -1.37591413370285    0.82708440806977
H        -2.86385288509413   -1.36878666121776   -0.93603455326093
17
 energy: -24.900408202451 gnorm: 0.001862892044 xtb: 6.4.1 (1a32961)
C        -1.55602805331344    0.04266078888919   -0.02171558436424
C        -1.36467563395252    1.41223888112319   -0.02111779562963
C         0.01063436435908    1.65032855493324   -0.00007342068615
C         0.63233081647124    0.40787666454609    0.01266592753705
C         1.99460679187490    0.12301519765299    0.02575287986908
N         3.12260772046534   -0.11405977608150    0.03232081919533
N        -0.34298951027889   -0.55866959943499    0.00042289650817
C        -0.11209946530644   -1.97693711844278    0.01261518292839
C        -2.82154361115858   -0.73485193896740   -0.04880823602785
H        -2.13738732602942    2.15550643839548   -0.03546418882241
H         0.50839375337145    2.60028428105038    0.00585783271138
H         0.95945698461065   -2.16510794542274    0.05459422523630
H        -0.51888632495965   -2.43727579778097   -0.89010237130693
H        -0.58758114299068   -2.43106168466092    0.88421509279358
H        -3.66773358292109   -0.05457048462005   -0.06563162828998
H        -2.90389278629442   -1.37473030662377    0.82974952935310
H        -2.86538299394752   -1.37019615455542   -0.93356116100521
17
 energy: -24.900417076297 gnorm: 0.001781106970 xtb: 6.4.1 (1a32961)
C        -1.55675085490113    0.04314218312945   -0.02374880615218
C        -1.36466937077572    1.41309467384374   -0.02313494546119
C         0.01009881996179    1.65051911035452   -0.00234909920940
C         0.63197104921453    0.40799444813234    0.01029890247215
C         1.99219296779658    0.11701750816286    0.02876758900841
N         3.12126174031303   -0.11432573799860    0.04698164495761
N        -0.34476916415971   -0.55822247258925   -0.00267802271955
C        -0.11100770583291   -1.97580782316525    0.00854978456008
C        -2.82236376130880   -0.73458232284179   -0.04612668921525
H        -2.13725918117606    2.15633337649133   -0.03756873910279
H         0.50995181235253    2.59939952061692    0.00325930929061
H         0.96120580470388   -2.16111384633542    0.04749445658253
H        -0.51880096675148   -2.43745215733869   -0.89309674648920
H        -0.58252134853853   -2.43192554142630    0.88135003337048
H        -3.66901009880171   -0.05500257584976   -0.06229457294541
H        -2.90138770300365   -1.37186342443564    0.83467204900779
H        -2.86831203909265   -1.37275491875043   -0.92865614795472
17
 energy: -24.900420033904 gnorm: 0.000592065869 xtb: 6.4.1 (1a32961)
C        -1.55668275656697    0.04293669198946   -0.02369012818604
C        -1.36438545767146    1.41258192911000   -0.02346566564037
C         0.01058399822769    1.65003666677053   -0.00248083432461
C         0.63203085572707    0.40761399828269    0.01061738628027
C         1.99279234035251    0.11821724581092    0.03015803033050
N         3.12188145258984   -0.11105700385703    0.04714026906304
N        -0.34428276393489   -0.55878881467404   -0.00222523035595
C        -0.11135009842288   -1.97684792657189    0.00822641593688
C        -2.82232820029549   -0.73439059486344   -0.04587815680503
H        -2.13682521694154    2.15596858572847   -0.03818614977749
H         0.50984998844933    2.59919653451588    0.00288275040503
H         0.96075728746374   -2.16262327610120    0.04620415300673
H        -0.52023343999076   -2.43743029204344   -0.89333681021051
H        -0.58248302681274   -2.43276157518810    0.88119630442714
H        -3.66859576395488   -0.05419192690751   -0.06258623582505
H        -2.90216687095835   -1.37108319922941    0.83522628357470
H        -2.86873232726019   -1.37292704277189   -0.92808238189929
17
 energy: -24.900421645175 gnorm: 0.000397470105 xtb: 6.4.1 (1a32961)
C        -1.55652031887213    0.04262939013883   -0.02390590697670
C        -1.36396354607875    1.41197055993703   -0.02417282645232
C         0.01118534768430    1.64935473672093   -0.00320782709223
C         0.63202377675114    0.40683700452980    0.01073135339204
C         1.99327527209034    0.11920818502296    0.03234739720150
N         3.12327440816461   -0.10605727016208    0.04999758213697
N        -0.34397308549174   -0.55953469460526   -0.00196890836557
C        -0.11194607310053   -1.97792571588613    0.00715000513574
C        -2.82236972824640   -0.73413061805049   -0.04514879166796
H        -2.13613838903133    2.15558136503206   -0.03918160147549
H         0.50993081381013    2.59870280704111    0.00192180772051
H         0.96011761863088   -2.16421520533176    0.04286229507674
H        -0.52297547099124   -2.43736324645853   -0.89395715734951
H        -0.58169439328680   -2.43410307398849    0.88063020152353
H        -3.66804784335416   -0.05316410528116   -0.06275054032133
H        -2.90286845337747   -1.36952219028874    0.83680565226241
H        -2.86947993530085   -1.37381792837006   -0.92643273474836
17
 energy: -24.900422099467 gnorm: 0.000413252210 xtb: 6.4.1 (1a32961)
C        -1.55643248263263    0.04241578297116   -0.02397204923537
C        -1.36372113418899    1.41173729439936   -0.02454797927063
C         0.01152034744249    1.64895011364058   -0.00327302456936
C         0.63214467466070    0.40626502404000    0.01085020495991
C         1.99358776879283    0.11957650856788    0.03277042140257
N         3.12389841185166   -0.10325640283830    0.05223251471825
N        -0.34394433492714   -0.55988483143317   -0.00172290382372
C        -0.11224915369496   -1.97827953978223    0.00651321992150
C        -2.82253450338013   -0.73402426825756   -0.04476502643748
H        -2.13575836662277    2.15551604223890   -0.04001865103820
H         0.51024601399925    2.59830977526540    0.00159658707254
H         0.95981585374969   -2.16501635638030    0.04037230625208
H        -0.52495833802584   -2.43714691838869   -0.89415723266857
H        -0.58074070157240   -2.43474927569354    0.88054277620197
H        -3.66802022976329   -0.05284947648365   -0.06321071269601
H        -2.90332835836549   -1.36845765212065    0.83787578735658
H        -2.86969546732298   -1.37465581974518   -0.92536623814609
