23
 energy: -32.100060379295 gnorm: 0.088411323688 xtb: 6.4.1 (1a32961)
C         1.20242000000000    1.42749000000000    0.02514000000000
C         2.41412000000000    0.73926000000000   -0.00611000000000
C         2.42279000000000   -0.65483000000000   -0.04717000000000
C         3.71070000000000   -1.41792000000000   -0.12910000000000
C         1.19783000000000   -1.34492000000000   -0.02627000000000
C        -0.02472000000000   -0.68297000000000    0.00083000000000
N        -1.16928000000000   -1.39292000000000    0.00348000000000
C        -2.34823000000000   -0.72459000000000    0.00418000000000
C        -3.60375000000000   -1.54392000000000   -0.00251000000000
C        -2.42564000000000    0.66172000000000   -0.00844000000000
C        -1.24350000000000    1.39283000000000    0.00666000000000
C        -0.01467000000000    0.72612000000000    0.01511000000000
H         1.21235000000000    2.51433000000000    0.04911000000000
H         3.34608000000000    1.29973000000000   -0.00921000000000
H         4.57342000000000   -0.74444000000000   -0.16832000000000
H         3.72643000000000   -2.02960000000000   -1.03737000000000
H         3.82736000000000   -2.06591000000000    0.74513000000000
H         1.19124000000000   -2.43272000000000   -0.04602000000000
H        -3.37834000000000   -2.60476000000000    0.14712000000000
H        -4.12080000000000   -1.43281000000000   -0.96066000000000
H        -4.27073000000000   -1.22378000000000    0.80432000000000
H        -3.38526000000000    1.16760000000000   -0.02738000000000
H        -1.28778000000000    2.47844000000000    0.00337000000000
23
 energy: -32.104562362944 gnorm: 0.037888665861 xtb: 6.4.1 (1a32961)
C         1.20923399795788    1.43182288380307    0.02046998829574
C         2.39642939426054    0.73580800560769   -0.01157362407383
C         2.40551920920699   -0.66455227631884   -0.05033550373686
C         3.69797485400301   -1.41983499567366   -0.12534061447702
C         1.20100513484947   -1.34921743382865   -0.03198510814143
C        -0.02798014983997   -0.67481517203007   -0.00213194274845
N        -1.17613152058998   -1.38245425081089    0.00101876028875
C        -2.33247998545484   -0.73093933624882    0.00125489627015
C        -3.58352833365322   -1.55327246025819   -0.00028173177739
C        -2.41356587816011    0.66725086310711   -0.00486153173685
C        -1.25403926963528    1.40817953207169    0.00750274280169
C        -0.01666020740894    0.74698001365486    0.01280785115124
H         1.21885131967212    2.51313024504902    0.04608818130706
H         3.32976261969747    1.28354809719342   -0.01107054540868
H         4.54979302262907   -0.74037188322235   -0.15971598959726
H         3.71886017779091   -2.03989458868287   -1.02165444475253
H         3.81245187997387   -2.07200471299035    0.73986164838113
H         1.19476928609942   -2.43088481658835   -0.05124553759949
H        -3.34936930662707   -2.60676149145981    0.14117637785057
H        -4.10472481166268   -1.43336179281670   -0.95030050110820
H        -4.25109831755118   -1.22501324013829    0.79680274202712
H        -3.37616422628241    1.15853540066960   -0.01842525656058
H        -1.29686888927508    2.48955340991140    0.00782914334510
23
 energy: -32.105501453482 gnorm: 0.007016288117 xtb: 6.4.1 (1a32961)
C         1.21672039288514    1.43539663469175    0.01353322632521
C         2.38910284116346    0.73375660175142   -0.01733693095583
C         2.39481740491158   -0.67277693840698   -0.05394731016931
C         3.69105881875608   -1.42291982692314   -0.11940273870018
C         1.20044191606099   -1.34954090066617   -0.03923691379649
C        -0.02883499049518   -0.66309443333689   -0.00874169001654
N        -1.17891465024069   -1.36968307254878   -0.00351946017969
C        -2.32159806057983   -0.73527027014384    0.00125688449734
C        -3.57009748069538   -1.56026024793270    0.00015104660489
C        -2.41007717575943    0.67354872322415    0.00128999153985
C        -1.26470092065999    1.41881247754155    0.00996709845922
C        -0.01795054653135    0.76251421473772    0.00821119688643
H         1.22288757720402    2.51511130026510    0.03917171040871
H         3.32833432380702    1.26767706471907   -0.01706944537790
H         4.53626857437337   -0.74018034445570   -0.14852156352317
H         3.71629108335452   -2.04842621285498   -1.00984915241140
H         3.79764086091346   -2.07513366781354    0.74507724453996
H         1.18380127500513   -2.42819870796455   -0.05880407064555
H        -3.32097671397220   -2.60785978580377    0.13341062619308
H        -4.09442226415739   -1.43558363925883   -0.94633636451657
H        -4.23625448064581   -1.23500581040637    0.79681019908288
H        -3.37916296814054    1.14967512068442   -0.00544800391005
H        -1.30233481655697    2.49887172090106    0.01522441966512
23
 energy: -32.105578251393 gnorm: 0.003739285846 xtb: 6.4.1 (1a32961)
C         1.21805645828863    1.43712697071555    0.00877953237766
C         2.39012490799270    0.73410559416565   -0.02161287445548
C         2.39488240488475   -0.67360887782424   -0.05662306045226
C         3.69113609084359   -1.42467740591885   -0.11505300323081
C         1.19903846893033   -1.34836713618550   -0.04400603340219
C        -0.02786873469130   -0.65837456774611   -0.01326595320442
N        -1.17739462834714   -1.36651242682769   -0.00792685628389
C        -2.32149167114531   -0.73475184063939    0.00085608415023
C        -3.56853078133756   -1.56234475074621    0.00004666890308
C        -2.41236909752190    0.67655531624169    0.00508087138612
C        -1.26716344943313    1.42110693455395    0.01174940092827
C        -0.01822349381482    0.76542733123448    0.00516731756845
H         1.22324836337449    2.51755798420802    0.03380499019877
H         3.33192555355557    1.26397605156012   -0.02103469627685
H         4.53671583377224   -0.74264024146185   -0.14124064906816
H         3.71989600360752   -2.05225981169192   -1.00434453896612
H         3.79215017468253   -2.07501857189243    0.75206823697576
H         1.17540449337001   -2.42728963248116   -0.06402417432880
H        -3.31407129952955   -2.60975074723896    0.12799167031244
H        -4.09491015394447   -1.43584468104073   -0.94520069875702
H        -4.23285098131539   -1.24339811692298    0.80072507994470
H        -3.38372470205949    1.14856438339004    0.00384118548200
H        -1.30193976016230    2.50184824254851    0.02011150019853
23
 energy: -32.105619389513 gnorm: 0.001246912012 xtb: 6.4.1 (1a32961)
C         1.21891621033171    1.43916402872761    0.00140454480764
C         2.39065327148327    0.73457079043767   -0.02751447066115
C         2.39487113933845   -0.67397921051144   -0.05993567246210
C         3.69078937293379   -1.42661365329782   -0.10819710748233
C         1.19702189299052   -1.34662437985750   -0.05094990943872
C        -0.02682293114914   -0.65266373402290   -0.02064843603718
N        -1.17574815899586   -1.36317379793794   -0.01498462884599
C        -2.32137067403821   -0.73354204142635    0.00047043134029
C        -3.56613087760360   -1.56469444713679   -0.00033503206116
C        -2.41437512443421    0.67987747706101    0.01124864666742
C        -1.26917012518893    1.42347948075815    0.01448518232126
C        -0.01850520992107    0.76841070647604    0.00011297834687
H         1.22405601238427    2.52029670476908    0.02480350522220
H         3.33497186116876    1.26030888687831   -0.02787595742596
H         4.53777829686717   -0.74616988749525   -0.12998123327749
H         3.72546855270884   -2.05731888018412   -0.99540696669970
H         3.78395455637198   -2.07417365153050    0.76242572617811
H         1.16462595147064   -2.42561495213778   -0.07150033961790
H        -3.30599920801462   -2.61241920623070    0.11795363807336
H        -4.09731726213743   -1.43366166490975   -0.94237392908702
H        -4.22707639158084   -1.25613140230344    0.80723980212552
H        -3.38800676110073    1.14716078166920    0.01817903482172
H        -1.30054439388477    2.50494205220521    0.02727019319230
23
 energy: -32.105629953001 gnorm: 0.001343628714 xtb: 6.4.1 (1a32961)
C         1.21875781447102    1.43983169048465   -0.00353485629143
C         2.39024423014307    0.73464576445830   -0.03165888233124
C         2.39468136788479   -0.67382325211181   -0.06184559610169
C         3.69022996922624   -1.42717625627538   -0.10345811795039
C         1.19644750683009   -1.34605520733055   -0.05505110021549
C        -0.02661485891497   -0.65109708439070   -0.02522957032034
N        -1.17553039717671   -1.36255524213230   -0.01986175765491
C        -2.32111856573871   -0.73297429416367   -0.00041785977223
C        -3.56496304020542   -1.56521844323446   -0.00066253757274
C        -2.41435299897891    0.68047139918017    0.01492138716336
C        -1.26934432759057    1.42412529043150    0.01596064351153
C        -0.01864243829466    0.76919421011620   -0.00311021374308
H         1.22491919181275    2.52096622528898    0.01868179742966
H         3.33486979076308    1.25980573288903   -0.03216654265854
H         4.53801002355452   -0.74743177857282   -0.12260139698918
H         3.72878056559393   -2.05986082277590   -0.98901063584638
H         3.77903388655187   -2.07294032673628    0.76896066003144
H         1.16156532326230   -2.42478133537660   -0.07578865666544
H        -3.30288088656297   -2.61346283125237    0.10914467626485
H        -4.10146065966640   -1.42859070991608   -0.93892370915889
H        -4.22211363989680   -1.26370329970136    0.81277786505624
H        -3.38839201822526    1.14645915730081    0.02741170764958
H        -1.30008583884230    2.50560141382063    0.03135269616529
23
 energy: -32.105642252668 gnorm: 0.001060502870 xtb: 6.4.1 (1a32961)
C         1.21827412536151    1.43994937406383   -0.00881628910765
C         2.38971223810834    0.73455571260797   -0.03551656124523
C         2.39460252985299   -0.67350601671043   -0.06316791193633
C         3.68980773801208   -1.42723713352238   -0.09829266524285
C         1.19656779308447   -1.34600520832147   -0.05871595513789
C        -0.02673017745231   -0.65131108468632   -0.03010960866163
N        -1.17580216228742   -1.36301701803486   -0.02507583296724
C        -2.32092474971589   -0.73273938087715   -0.00163109952048
C        -3.56456452282572   -1.56504225119347   -0.00101636168081
C        -2.41372279955200    0.67989410907490    0.01827401379960
C        -1.26895159727960    1.42413945426952    0.01678925035178
C        -0.01877621353014    0.76917058948191   -0.00692586131824
H         1.22586777912454    2.52085057862272    0.01195076474790
H         3.33371092459596    1.26077770117670   -0.03674952271952
H         4.53805130470115   -0.74782992303236   -0.11483047676684
H         3.73232294712526   -2.06185150517040   -0.98203431372658
H         3.77455112858229   -2.07121677106083    0.77566396329342
H         1.16203327283094   -2.42447947886673   -0.07897670150597
H        -3.30159365606727   -2.61429706578108    0.09563667711757
H        -4.10968894872959   -1.41832526309778   -0.93283942028126
H        -4.21488066399644   -1.27248204269764    0.82137648559754
H        -3.38740231637281    1.14610516212063    0.03614724488636
H        -1.30042397357035    2.50532746163468    0.03475018202434
23
 energy: -32.105654790477 gnorm: 0.001311348519 xtb: 6.4.1 (1a32961)
C         1.21804302390788    1.44002077870953   -0.01710074486994
C         2.38957057883751    0.73457845779967   -0.04208093466507
C         2.39468173286701   -0.67333223092574   -0.06552763991189
C         3.68993195315254   -1.42742977544288   -0.09018280697255
C         1.19675137914873   -1.34592188745575   -0.06390840001785
C        -0.02689385583654   -0.65158801485779   -0.03701012950612
N        -1.17594070201343   -1.36318761105812   -0.03242409011473
C        -2.32086306701181   -0.73273284069259   -0.00353975864425
C        -3.56463267314157   -1.56500600121414   -0.00138199145182
C        -2.41348443286018    0.67936951977390    0.02264910661807
C        -1.26891946192755    1.42418861593114    0.01760172967338
C        -0.01896355706746    0.76932454031243   -0.01270509060700
H         1.22645341617837    2.52083471328373    0.00167363395022
H         3.33306917589093    1.26178729937278   -0.04339934562964
H         4.53842649114281   -0.74829076288690   -0.10295776261108
H         3.73856453651357   -2.06532326552287   -0.97116789735292
H         3.76841556762138   -2.06838099711151    0.78662418102322
H         1.16305873053284   -2.42443277694640   -0.08319728547569
H        -3.30013682973035   -2.61616828335907    0.07027736287633
H        -4.12512864637058   -1.39883139652699   -0.92113619214176
H        -4.20184970070576   -1.28917492918123    0.83759669898273
H        -3.38687579663549    1.14598264067456    0.04816960045846
H        -1.30123786249284    2.50514420732421    0.03901775638987
23
 energy: -32.105663140963 gnorm: 0.001158173616 xtb: 6.4.1 (1a32961)
C         1.21806198739672    1.43981833983240   -0.02264663602760
C         2.38976397286498    0.73465425495231   -0.04579361249981
C         2.39481323969151   -0.67333287419413   -0.06636003729487
C         3.69026734486259   -1.42730411874854   -0.08447980267004
C         1.19693805575974   -1.34597647875272   -0.06676930572846
C        -0.02704023533319   -0.65211434233604   -0.04136365861019
N        -1.17602689723589   -1.36329667315002   -0.03660638197524
C        -2.32091943208890   -0.73300753380958   -0.00479260944942
C        -3.56507635964020   -1.56485793533594   -0.00158372348917
C        -2.41336714996492    0.67898706371991    0.02454152501756
C        -1.26876725237801    1.42381975979114    0.01731225109571
C        -0.01891665017923    0.76911816674486   -0.01680040974166
H         1.22599126386767    2.52071423155504   -0.00566597448775
H         3.33303722499732    1.26223245576355   -0.04852105652991
H         4.53856273406628   -0.74797947190745   -0.09479742983582
H         3.74299150217324   -2.06730897906206   -0.96362060980186
H         3.76481595670478   -2.06614847146805    0.79418031298323
H         1.16437547275725   -2.42462877469618   -0.08497018854891
H        -3.30060814724660   -2.61728758551516    0.04680447556754
H        -4.13952584225671   -1.38047513487101   -0.90915324945385
H        -4.18955610657663   -1.30499241107825    0.85208521815980
H        -3.38639138159183    1.14607261760804    0.05423539852459
H        -1.30138330064998    2.50472389495786    0.04065550479612
23
 energy: -32.105671743001 gnorm: 0.000789328648 xtb: 6.4.1 (1a32961)
C         1.21813439044599    1.43945052886076   -0.02464549923642
C         2.39002062833514    0.73476790014366   -0.04732782022953
C         2.39489760274255   -0.67342370409067   -0.06605629786053
C         3.69067972457783   -1.42694950891602   -0.08214296659229
C         1.19716315415876   -1.34625643688134   -0.06607568897692
C        -0.02715920764076   -0.65294078988771   -0.04133820548653
N        -1.17614092829465   -1.36357667667037   -0.03659485006868
C        -2.32110085198116   -0.73345468437778   -0.00545685122599
C        -3.56579432988688   -1.56454366208976   -0.00140713594053
C        -2.41342395892934    0.67870972861172    0.02317793742121
C        -1.26859639195615    1.42319318508643    0.01569418120508
C        -0.01877646147472    0.76854311874160   -0.01785202127935
H         1.22479673489743    2.52046207573320   -0.00878435138071
H         3.33334744136522    1.26219904296103   -0.04976091868366
H         4.53850854280995   -0.74716597490616   -0.09218308800370
H         3.74453977397910   -2.06762563083066   -0.96066906151451
H         3.76461264800216   -2.06492591018973    0.79717308859631
H         1.16590614958603   -2.42509054742885   -0.08363227273681
H        -3.30200291772890   -2.61760135547715    0.02686501791414
H        -4.15115661611788   -1.36426100087553   -0.89795331214551
H        -4.17914376162924   -1.31855480511544    0.86397183078362
H        -3.38618137946467    1.14630915095492    0.05263816717017
H        -1.30108998579581    2.50416595664381    0.03825011827117
23
 energy: -32.105681501826 gnorm: 0.000880238089 xtb: 6.4.1 (1a32961)
C         1.21819610703353    1.43911646053106   -0.02382261482232
C         2.39024512819881    0.73481041816979   -0.04516415467839
C         2.39496312214263   -0.67360917114880   -0.06347073174722
C         3.69110514887939   -1.42653738841965   -0.08243020791168
C         1.19730568844766   -1.34667733190014   -0.06175921384440
C        -0.02716571487327   -0.65362662199814   -0.03793358876572
N        -1.17618609342132   -1.36389683667047   -0.03227945586483
C        -2.32132281804986   -0.73381240675046   -0.00455952973568
C        -3.56648903418774   -1.56426138939637   -0.00127600772464
C        -2.41373488759885    0.67877704356181    0.01917265160835
C        -1.26856980135040    1.42269425773233    0.01207225314098
C        -0.01863505034080    0.76786481559790   -0.01730111576295
H         1.22335880414082    2.52026768084800   -0.00934858857563
H         3.33384745658634    1.26166916187820   -0.04956368972069
H         4.53848314637686   -0.74623611493635   -0.09399165499588
H         3.74352239918779   -2.06668424750556   -0.96150527426943
H         3.76723180266751   -2.06491506514710    0.79641931111854
H         1.16682312406139   -2.42569613040699   -0.07732123039590
H        -3.30306995570358   -2.61785364666236    0.00246534548632
H        -4.16405365747041   -1.34419472245198   -0.88483856882142
H        -4.16672210253744   -1.33622813365599    0.87820897628475
H        -3.38656401421038    1.14657746368445    0.04329950801374
H        -1.30052879797869    2.50388190504682    0.03081758198409
23
 energy: -32.105685853511 gnorm: 0.000782526820 xtb: 6.4.1 (1a32961)
C         1.21821353834726    1.43912682233769   -0.02077889967894
C         2.39016898086866    0.73480895697017   -0.04325060805414
C         2.39493598444050   -0.67369304264408   -0.06123063970124
C         3.69122558757668   -1.42647547403575   -0.08510240879006
C         1.19736573366712   -1.34686095418169   -0.05571735945650
C        -0.02699892446879   -0.65360446690133   -0.03180856902342
N        -1.17610288400419   -1.36399609819777   -0.02643061013844
C        -2.32120641849172   -0.73379428087674   -0.00451061221678
C        -3.56646974209630   -1.56419905538178   -0.00125668386175
C        -2.41384333722816    0.67906613412694    0.01385031990583
C        -1.26870251113262    1.42281200254941    0.00911486080469
C        -0.01861214520947    0.76772715784834   -0.01428419599573
H         1.22316170608894    2.52026138302300   -0.00643538114083
H         3.33401520801224    1.26124465253533   -0.04644665815671
H         4.53848114558245   -0.74605465843188   -0.09979305643112
H         3.74002566210442   -2.06572805655895   -0.96518648891591
H         3.77128479814154   -2.06576260568261    0.79282216070132
H         1.16650145211787   -2.42585234418160   -0.07052410481855
H        -3.30343209356075   -2.61726909018187   -0.01094199317595
H        -4.17065436543756   -1.33402211311282   -0.87690087920907
H        -4.15989191534030   -1.34709875987797    0.88501826327962
H        -3.38708086687315    1.14666201595177    0.03245141316477
H        -1.30034459310468    2.50413187490417    0.02323213090891
23
 energy: -32.105686257844 gnorm: 0.000616427289 xtb: 6.4.1 (1a32961)
C         1.21813677992554    1.43933426560868   -0.02050318949897
C         2.39003834503530    0.73472093358745   -0.04241332693740
C         2.39493582617539   -0.67366732310359   -0.05997914468813
C         3.69100426266613   -1.42669688678778   -0.08517360560327
C         1.19725476000726   -1.34672261630629   -0.05370042068427
C        -0.02689335487212   -0.65310789832830   -0.03064890319929
N        -1.17600939618547   -1.36387983860535   -0.02538984140399
C        -2.32111405361877   -0.73357386339759   -0.00458685996788
C        -3.56605597667105   -1.56441302945316   -0.00140591008174
C        -2.41387250421203    0.67920370995163    0.01258259607665
C        -1.26884814499031    1.42316316386918    0.00770461321047
C        -0.01871293081366    0.76803692439917   -0.01416941690246
H         1.22385160844199    2.52043817627369   -0.00689584188983
H         3.33384078574351    1.26127929336330   -0.04653827542393
H         4.53849430629498   -0.74653186783186   -0.10090643931059
H         3.73860778688909   -2.06594025493081   -0.96533581696916
H         3.77190296980124   -2.06604115772573    0.79262182106548
H         1.16554467405693   -2.42563620059855   -0.06733527770644
H        -3.30185703358444   -2.61783705222525   -0.02068759316416
H        -4.17575773235471   -1.32722299641403   -0.87229504748099
H        -4.15466063821329   -1.35435715290205    0.89073055501144
H        -3.38724838333670    1.14642643684991    0.02938176300777
H        -1.30054195618482    2.50445523470731    0.02083356254068
