  100
 energy: -151.848908414524 gnorm: 0.000643159185 xtb: 6.4.1 (1a32961)
N        -0.95253700500842   -2.00479837885320   -0.32494227987688
C        -2.19923120446198   -1.52060654109483   -0.44668281322575
C        -3.14811160589943   -2.17230802806774   -1.24393467217614
C        -2.80135309249028   -3.31744697072233   -1.92752089976953
C        -1.50118632225979   -3.79786399743467   -1.80291560518746
C        -0.62516926016248   -3.10611969094392   -0.99178643599365
H         0.39355284739673   -3.44459898353209   -0.86353601283687
H        -1.18271158139629   -4.68821986917589   -2.32028839942301
H        -4.15291098596875   -1.79139751648430   -1.32422341172596
C        -2.49826622633816   -0.29912172554603    0.28991009196703
N        -1.53163529876165    0.16751683522363    1.10599955978261
C        -1.77340907418702    1.26466042085386    1.81965105620840
C        -2.95834291345455    1.96914830730951    1.75921383027455
C        -3.95240266531580    1.52134223582040    0.89422027097036
C        -3.71446749881795    0.38006458332326    0.15810611128475
H        -4.46977810441811    0.02335408435071   -0.52220670841806
H        -3.10167157463403    2.84657546829421    2.36919070303278
H        -0.96818094164194    1.58443043413629    2.46436562383818
Ir        0.42149999999994   -0.81649999999998    0.91329999999997
B         0.39017321377489    0.58448870168794   -0.62468725828168
O        -0.14658991269516    0.24158932691026   -1.84699654356620
C        -0.24723740266037    1.40121411212480   -2.68271449884944
C         0.15956060178633    1.03668737757241   -4.10797048971419
H         1.12176267809966    0.53560717213953   -4.11228185737519
H         0.20735238635411    1.92975276310214   -4.72554380412260
H        -0.57905333895110    0.35739848891043   -4.52673925773835
C        -1.71800034544599    1.84131418229841   -2.67082336927425
H        -1.87739158159264    2.69074605612437   -3.32841974503976
H        -2.33335352700533    1.00993332906044   -3.00901388079407
H        -2.02534719747431    2.09839529648727   -1.65890433226115
C         0.69687996397578    2.42008667288501   -1.96359179038467
O         0.72734291793782    1.91915509986020   -0.61827143613025
C         2.13492388877464    2.35323752403719   -2.49062506859865
H         2.49505224357326    1.33037805629536   -2.41015689479191
H         2.19763012771881    2.70366565921760   -3.51670901344908
H         2.76638497853222    2.97730110413556   -1.86323868226989
C         0.21379794215738    3.86863989376615   -1.97108021259670
H        -0.72943595779649    3.97453455010017   -1.44388128897384
H         0.95211197917887    4.49274760313265   -1.47338660856370
H         0.09717108635826    4.21459869410626   -2.99482073012031
B         1.61641187195293    0.64687434343848    1.83531818442154
O         2.88845943886279    1.03952051364614    1.52630341001031
C         3.25697591868326    2.22999554241492    2.23751621348190
C         4.62194469884353    2.01476042907381    2.89560575637976
H         4.62466401032565    1.11727843848917    3.50569882109645
H         5.37089858875206    1.89131794039603    2.11786481200338
H         4.88851332696557    2.87490751280263    3.50218528314868
C         3.37696065743279    3.34427798536775    1.19176644674706
H         3.60061691053750    4.30059260862453    1.65446194468099
H         4.18149433236396    3.08613330883463    0.50721174226494
H         2.45622582197862    3.40459705335648    0.61887838475076
C         2.06730340553549    2.43518632947689    3.24945085840940
O         1.11886655971361    1.43103271808570    2.85580951531064
C         1.37561398433087    3.79803830289668    3.15102346500694
H         0.96659610779672    3.94923147140868    2.15697892246722
H         0.55582044877032    3.82734037259591    3.86557017534857
H         2.07219831170892    4.59660230909954    3.38808989431417
C         2.43773658167445    2.18411949291239    4.71553593490824
H         2.88283611597372    1.20324176314988    4.84374096604990
H         3.12811478811356    2.94265990859993    5.07078323862390
H         1.53118594112773    2.22563939202770    5.31530493356859
B         2.27819999999899   -1.33089999999999    0.17410000000048
O         3.15613861844921   -2.22369294338887    0.74590265418748
C         4.40437164528095   -2.21806856576536    0.03818773723758
C         5.36876973396379   -1.35161179523506    0.85273604679398
H         4.93738838500617   -0.36287427481988    0.97712773051389
H         5.47552983043523   -1.79085470074019    1.84109590080975
H         6.34318454147485   -1.28940920059694    0.37921397774939
C         4.94684065692081   -3.64361717084038   -0.04472394151119
H         5.16547597602627   -3.98901798147985    0.96207741236777
H         5.86112976499948   -3.66030301481998   -0.63094609798014
H         4.22170775412392   -4.32043193258297   -0.48451189119390
C         4.01329582833657   -1.56908802880875   -1.33437454733854
O         2.78360908301842   -0.89001572008065   -1.02717889457849
C         5.02496137765383   -0.56242729228690   -1.87782897022951
H         5.99612594932218   -1.03409014508939   -1.99776769598561
H         4.68725350920617   -0.20366988900846   -2.84709734799648
H         5.10914570345879    0.28788628711682   -1.21002769063472
C         3.69683286018792   -2.60399863185868   -2.42250898312939
H         2.95969704680064   -3.31609061754471   -2.06110486390933
H         3.27177818580742   -2.08827974654782   -3.28039423262934
H         4.59515430397020   -3.12895887558495   -2.73242400779887
H        -3.52358196715200   -3.82919672577958   -2.54540326425926
H        -4.88761236184370    2.05243159262422    0.80115100445318
C         0.23590000000024   -1.68140000000013    2.96029999999805
C        -1.08930953419810   -1.96949984376464    3.30894216764250
C         1.09034140716061   -1.65317016007868    4.05402142045666
C        -1.51400647005468   -2.08447287200806    4.64589866847450
N        -2.19382719854256   -2.18742688180107    2.50821408318151
Br        2.96535122101990   -1.49849904861995    3.79153676302072
C         0.68296456052370   -1.76800423232507    5.38323448437311
C        -0.64415334844829   -1.96972411611824    5.71354925976119
O        -2.85254320189474   -2.34315856663994    4.63410082288990
C        -3.17726140169742   -2.39451554539563    3.31044584606155
H         1.42563062103624   -1.70660803655583    6.16304144059967
H        -0.97510805498936   -2.05342044109514    6.73471447932632
C        -4.57918170616466   -2.67636261554359    2.93274557244783
H        -4.85828980142482   -3.67607035983064    3.26219587891723
H        -4.67267673778323   -2.60519393550772    1.85414399013649
H        -5.24339404873009   -1.96229235855323    3.41610162849308
