  110
 energy: -163.152532627119 gnorm: 0.000327088407 xtb: 6.4.1 (1a32961)
N        -0.91061271005090   -2.02021648693465   -0.40379883552300
C        -2.16361430291477   -1.55037018810683   -0.54528554420498
C        -3.00465623856683   -2.03414387793514   -1.55472304349838
C        -2.55217733484649   -3.01188262899103   -2.41374753165038
C        -1.25740619920959   -3.49632484708509   -2.24859429647043
C        -0.48501658205711   -2.96582247848679   -1.23633611352204
H         0.52684469326235   -3.30775913490320   -1.07108477316311
H        -0.86310040393597   -4.26343336943701   -2.89493443978739
H        -3.99976177785843   -1.63900609248488   -1.67661637437952
C        -2.57319832598302   -0.50778043679559    0.38960863756249
N        -1.61586980451157   -0.01568895828887    1.20243987793448
C        -1.94057663749911    0.94344618414139    2.06483588571398
C        -3.21366988071461    1.46425110020031    2.18167421878125
C        -4.21547678430293    0.96055727609985    1.35678389700736
C        -3.88746035020671   -0.02897670967969    0.45490268461989
H        -4.65130832827570   -0.43759118809814   -0.18572930538443
H        -3.42140996973651    2.23663774969597    2.90445428470975
H        -1.12855522468785    1.30482956896603    2.67667193870755
Ir        0.42149999999997   -0.81649999999993    0.91329999999993
B         0.36548823506938    0.62366686624481   -0.59999317289981
O        -0.35862279128275    0.37894268031630   -1.75571794660054
C        -0.48547322804238    1.58366644553876   -2.51821198798060
C        -0.35315997738835    1.26987736377494   -4.00627809485926
H         0.54487572990232    0.69271959870214   -4.19977439448141
H        -0.32647700807372    2.19182474660681   -4.58130298436085
H        -1.21064199074459    0.68149765089116   -4.32419756364406
C        -1.88900511159302    2.14249001135923   -2.24102591710609
H        -2.07685448496694    3.04109500709469   -2.82115840105307
H        -2.62413342413568    1.38640374332809   -2.51024178746670
H        -2.00134821784260    2.35862330504381   -1.18033592526346
C         0.64987257498792    2.48089522225161   -1.92619554948664
O         0.84535978219204    1.91223874609513   -0.62417411591015
C         1.97642808801473    2.32182198712334   -2.67883179358489
H         2.24951668934915    1.26952956094955   -2.70060238563721
H         1.91217802198172    2.72218121836065   -3.68644193942168
H         2.75169958837146    2.85421504264941   -2.13295783332699
C         0.30448967668048    3.96348363636653   -1.80318015030556
H        -0.52189848398636    4.11898445203212   -1.11655240475003
H         1.16933158432096    4.49982664357136   -1.42016023506990
H         0.04643462413599    4.36761063852743   -2.77878691969434
B         1.54942295396672    0.66974479216452    1.84793205839640
O         2.91365826218164    0.82394749957763    1.86441762937274
C         3.25937770280136    2.10418516270783    2.41438881773146
C         4.49947550796431    1.97104784217520    3.29670232689447
H         4.36719557397305    1.19550740224024    4.04360218742234
H         5.35043315800073    1.70153895857034    2.67655767376239
H         4.71029780056193    2.91724090447470    3.78761671296243
C         3.57120052235183    3.01822707212386    1.22348161686242
H         3.82426592698709    4.02352508042388    1.54654545704239
H         4.41297131512543    2.59973216886548    0.67644866491759
H         2.71287835913389    3.03257138859749    0.55684922596946
C         1.95167560907695    2.51831504126563    3.17260692838191
O         0.95598687459935    1.68490215780199    2.56342534977340
C         1.55098191655597    3.98338366197495    3.00834960953984
H         1.33837299361973    4.20675074265748    1.96834910270219
H         0.65166817752368    4.17353288549813    3.58912008165186
H         2.34420782041751    4.63218362619978    3.36957150616911
C         1.98320247641174    2.16779672575364    4.66587333229184
H         2.21418747764861    1.11446564846810    4.79703308086292
H         2.70871490370018    2.77759946413552    5.19528417798434
H         0.99707678110626    2.34657742524520    5.08836283618501
B         2.27820000000121   -1.33090000000139    0.17409999999533
O         3.14981330683266   -2.23376076837662    0.74252310915850
C         4.42124191907166   -2.18754211163278    0.08176181000506
C         5.35884930542370   -1.39319700573193    0.99725718750270
H         4.90679643576233   -0.42913778298399    1.21125597183042
H         5.45927625491257   -1.93147229111059    1.93634004081258
H         6.34139231711956   -1.26941903951326    0.55282662036709
C         4.95987276052208   -3.60895295738356   -0.08253623004583
H         5.12717651159454   -4.03447272302670    0.90331830157974
H         5.90136792315682   -3.59189585717788   -0.62420091814956
H         4.25189158600766   -4.24322366644157   -0.60525960588863
C         4.09155538941924   -1.44252502564667   -1.26133518836715
O         2.81783812155581   -0.83755352042851   -0.99076992435418
C         5.08573957680428   -0.34810264800594   -1.64708700362686
H         6.08210570017024   -0.76449923610335   -1.76572524115417
H         4.77558633813350    0.09632259972175   -2.58940876191638
H         5.09787724619659    0.43163515246281   -0.89364418900280
C         3.90169730809358   -2.38908524111474   -2.45425202607438
H         3.16343634803809   -3.15039751270198   -2.21863392143277
H         3.53097467206399   -1.81281492865795   -3.29847169956529
H         4.83986754549733   -2.85970890406142   -2.73190392045573
H        -3.18854793918415   -3.39012690082826   -3.19926178770290
H        -5.22673239176066    1.33275240353293    1.42139438906442
C         0.23589999999994   -1.68139999999901    2.96030000000303
C        -1.02285180129782   -2.15221895033489    3.32329345464030
C         1.22089850416294   -1.50276539327902    3.94824502601215
C        -1.26698623021126   -2.34656423665869    4.66917742384759
H        -1.79035820558470   -2.37875790352957    2.59868633830000
C         0.97843739046391   -1.69084466592444    5.29232630332223
H         2.20960983228091   -1.21800646152775    3.62278348079448
C        -0.29365941424353   -2.11805857377290    5.66086747370842
O        -2.38684474069677   -2.80921558682234    5.29515201402110
H         1.74149287568611   -1.54498842354315    6.04034697541268
N        -0.83795916592295   -2.44702882489432    6.87715565823883
C        -2.04569851123171   -2.84791262981584    6.62124205186282
C        -2.99359323784964   -3.34704469423718    7.58920949307027
C        -2.63084272562110   -3.42389310804527    8.93502071612243
C        -4.26088306435266   -3.78316558681173    7.19862069601077
C        -3.51653150348205   -3.93292495700244    9.86249338264897
H        -1.64926447276611   -3.08381650270160    9.22381244182339
C        -5.13636239531061   -4.28987160949048    8.13668006783504
H        -4.54416442260360   -3.72366472412105    6.15816709859991
C        -4.77895028819747   -4.37697465513165    9.47992948872980
H        -3.22399387272714   -3.99107785936339   10.90068855533473
H        -6.11380087498884   -4.62927875259897    7.82539050568324
C        -5.73204810621081   -4.95705823101418   10.47849695954281
H        -5.79152659956182   -6.03767665628923   10.34825724279170
H        -6.73101336805555   -4.54979098956304   10.33652621838558
H        -5.40488187694974   -4.75121284347728   11.49401784017935
