  104
 energy: -150.796405638509 gnorm: 0.000350038043 xtb: 6.4.1 (1a32961)
N        -0.91020328510286   -1.99027594029265   -0.41003885238678
C        -2.17094083035850   -1.53003930755423   -0.53819680701963
C        -3.03983334361040   -2.07087943520173   -1.49567622554651
C        -2.60650326484380   -3.08208819026431   -2.32349977646576
C        -1.29999732538873   -3.54633237021895   -2.18032623046173
C        -0.50334735990454   -2.96888047918696   -1.21500600242427
H         0.51468511303158   -3.29939754333686   -1.06342629589769
H        -0.91868502120571   -4.33716922442387   -2.80565301143279
H        -4.04598356908159   -1.69800495083942   -1.59628332141952
C        -2.55483271068385   -0.44934347159421    0.35835271486069
N        -1.59670358210005    0.00979772951288    1.19346119452033
C        -1.90268127119734    0.99507018558577    2.03493650804557
C        -3.14958389357864    1.58085145673226    2.10260043931318
C        -4.14697500606948    1.12407220543903    1.24323315719227
C        -3.84143733901178    0.10592250287552    0.36752327606471
H        -4.60033887763229   -0.26147147116382   -0.30334993375135
H        -3.34284989748067    2.36972760741658    2.81152875188187
H        -1.09485513744570    1.32132149536753    2.67170318935305
Ir        0.42149999999985   -0.81650000000000    0.91330000000013
B         0.37339578691940    0.68111398029557   -0.54485315351610
O        -0.35783925049922    0.49181053161114   -1.70772838303515
C        -0.50059360244404    1.73412224251963   -2.40355222634812
C        -0.38431081863454    1.50316975672097   -3.90824842183456
H         0.51522363345141    0.94433775821446   -4.14422180507157
H        -0.37145456795971    2.45566313829597   -4.43211500663120
H        -1.24145137090567    0.92682744208413   -4.24838352053942
C        -1.90426914991127    2.26852688354677   -2.08180700078031
H        -2.10615787847557    3.19265300230319   -2.61535471208527
H        -2.63755271113330    1.52043677529867   -2.37732008598454
H        -2.00449598463828    2.43265515176097   -1.01067408894191
C         0.63495636203344    2.60711867401745   -1.77677589561236
O         0.84857784677567    1.97275969726273   -0.50974145356525
C         1.95377768584998    2.50054276749384   -2.55233724805262
H         2.23469401611710    1.45339121818077   -2.63611214440188
H         1.87443238079891    2.95541729214134   -3.53555308849291
H         2.73191272592389    3.00790620131553   -1.98676317697970
C         0.27961634087973    4.07855597713216   -1.57152690670613
H        -0.53594064205072    4.19032745171057   -0.86373390648957
H         1.14608474316062    4.60263705448011   -1.17526274324683
H         0.00137050542640    4.53022883249374   -2.52036387442432
B         1.56807897842503    0.62787530362930    1.89335748211338
O         2.93635363238368    0.75114877061721    1.91501845871182
C         3.31365601314261    1.99859822118116    2.51374313253664
C         4.53832311733386    1.79457566345876    3.40437672850818
H         4.36777868014986    1.00102502513503    4.12429911482850
H         5.38662676608120    1.51399073352072    2.78516582304920
H         4.77714456833321    2.71654227662896    3.92778906077551
C         3.66782480248582    2.94332083414344    1.35832864889032
H         3.94662903465299    3.92940138294651    1.71770797992921
H         4.50341509859602    2.51833407967001    0.80667125577265
H         2.81889758936297    3.00627795153330    0.68240346221768
C         2.01154140540246    2.42685255372344    3.27403973375871
O         0.99847343809511    1.63590355858671    2.63957206268475
C         1.64862011461522    3.90557425634690    3.13945431345895
H         1.45014324005165    4.15669313627873    2.10284318095502
H         0.74898148588277    4.10480791427163    3.71671547275698
H         2.45415211236383    4.52674398317302    3.52160294330021
C         2.02279292936881    2.04542708690640    4.76001273789297
H         2.21194126402823    0.98187524989424    4.87738228592376
H         2.76881061190379    2.61603888372254    5.30437923491661
H         1.04217411161805    2.25673004233047    5.18057252437859
B         2.27819999999968   -1.33089999999892    0.17410000000052
O         3.13412421530584   -2.29129433888793    0.66920149124985
C         4.40373312767171   -2.21707422108180    0.00865326226618
C         5.35248313527489   -1.49157286166546    0.96874801865041
H         4.91612465944950   -0.53332663859739    1.23554677524414
H         5.44041376715196   -2.08235092930197    1.87709628885374
H         6.33826174874691   -1.35956524043877    0.53339828572257
C         4.92743676195318   -3.62980462664045   -0.25057649201875
H         5.10348502320689   -4.11811545642475    0.70421311606120
H         5.86215879874556   -3.58570961210049   -0.80261184375792
H         4.20720767669342   -4.22342070328308   -0.80371936600423
C         4.07907481099507   -1.38325563088758   -1.28151101217564
O         2.82528730029330   -0.76673396288897   -0.95769419290679
C         5.09741092628765   -0.29365422006836   -1.61460036883565
H         6.08160942351457   -0.72749388907244   -1.76833098695900
H         4.78915522494512    0.21257520819390   -2.52603688250479
H         5.13715105739603    0.44086152033958   -0.81783147246322
C         3.85101784397601   -2.25122251800930   -2.52706240268521
H         3.09636891875099   -3.00656278788333   -2.32637644515460
H         3.48325490222137   -1.61567893274430   -3.32910701769272
H         4.77322732127887   -2.72680983731380   -2.84681280425672
H        -3.26492359321939   -3.50399568127142   -3.06769908554128
H        -5.13653989832423    1.55540086950182    1.26250205737652
C         0.23590000000080   -1.68140000000193    2.96030000000022
C        -1.04081164950792   -2.11035465205856    3.35235710738722
C         1.23621421779248   -1.53723383905660    3.91017470792129
C        -1.39646174846939   -2.32375323938561    4.67544528446103
H        -1.79303207291631   -2.30047223384634    2.59834315106907
C         0.91190402611976   -1.73230042436990    5.24762444108961
H         2.24562618132405   -1.29702852342530    3.61976732672992
C        -0.39666424330774   -2.11437847446588    5.61804528786266
C        -2.76879141716478   -2.77965302950750    5.07932098178323
N         1.69665609931076   -1.64702242562164    6.37723164957763
N        -0.35632342821656   -2.24928892497440    6.98702531243576
H        -3.38411393597917   -2.95571345182313    4.20076827643449
H        -3.25665378097716   -2.02528509243266    5.69706633131546
H        -2.71186226195334   -3.70488215588430    5.65269910805992
C         0.92230526497244   -1.95719111797420    7.37665459995424
H        -1.11822653140524   -2.51516861315573    7.58685461594225
C         1.34344497792037   -2.00765030399067    8.79853797699243
H         2.39452856785845   -1.74565723520139    8.86242065597387
H         1.19802754667386   -3.00923696847388    9.20096965762346
H         0.76096304330271   -1.30658468091649    9.39441118647153
