   98
 energy: -148.040106335396 gnorm: 0.000721039551 xtb: 6.4.1 (1a32961)
N        -0.89145530739505   -1.92952225201080   -0.49644901980035
C        -2.09074710848104   -1.36617096946965   -0.72675150246482
C        -2.90815863711501   -1.81857319846013   -1.76799622153330
C        -2.48653733416820   -2.85727640650544   -2.56974411525696
C        -1.24506641484598   -3.43126216267484   -2.31787359840057
C        -0.49309990978865   -2.92826700220062   -1.27623117354308
H         0.47733006425025   -3.34357419120410   -1.04351005554359
H        -0.87498233061300   -4.24769185168477   -2.91626696206661
H        -3.86609211328231   -1.36224982848673   -1.95304632910096
C        -2.47748858813712   -0.27313116745853    0.16043069004486
N        -1.57551252565960    0.09830209218783    1.09347469194692
C        -1.89628484515937    1.07391716521863    1.94066346143254
C        -3.10471414705509    1.73962157288798    1.91447695597474
C        -4.03846344731151    1.38022131022132    0.94794641545775
C        -3.71656396282048    0.36877975035212    0.06786138455286
H        -4.43182524443016    0.07172776957064   -0.68004180207963
H        -3.31469677706876    2.51305497708529    2.63547514344727
H        -1.13685827092254    1.32648796488979    2.66564377256611
Ir        0.42149999999986   -0.81650000000024    0.91329999999996
B         0.44997921772364    0.65960778924294   -0.57482839352379
O        -0.19810781658188    0.43546665449845   -1.77397693274138
C        -0.24823542408338    1.64465754270896   -2.54033227918034
C        -0.01209993082099    1.32596519511992   -4.01415285006397
H         0.88787379696801    0.73317121663640   -4.13937225584119
H         0.07209814849323    2.24563354871344   -4.58731641676356
H        -0.85352520491602    0.75040690856675   -4.39318574116441
C        -1.65686542542886    2.23042440930905   -2.36853789180492
H        -1.78438488651982    3.12662914784423   -2.96851686174571
H        -2.38416253966171    1.48507735476455   -2.68378987569495
H        -1.84341877613412    2.46025541262157   -1.32127807078071
C         0.85600750197688    2.51989796199322   -1.86321049716726
O         0.94335394995978    1.94424072676827   -0.55077997940923
C         2.22944626391988    2.33665663555316   -2.51966384856579
H         2.48267375940575    1.27928041886967   -2.52582187533757
H         2.24224627895259    2.73863978774622   -3.52856542982351
H         2.97580084137505    2.85524612552126   -1.92246229520505
C         0.53036794302554    4.00863718803900   -1.76074330953307
H        -0.33533070959321    4.18041701197661   -1.12815536006740
H         1.37850737165584    4.53151178677359   -1.32451485696266
H         0.34155740790796    4.41627350335844   -2.75049469256506
B         1.56057296748682    0.67043725964898    1.84902318047256
O         2.89489057700383    0.93812836012337    1.70182858202549
C         3.25424715092441    2.16168241679594    2.35773583012580
C         4.49384840205335    1.91530516608302    3.22099220839670
H         4.32574381204165    1.09637424128946    3.91179855810919
H         5.32422982688319    1.64501664124158    2.57386707598850
H         4.75733937010497    2.81442011541114    3.77038740487664
C         3.60530638619406    3.16618215627882    1.25454851560885
H         3.84144870939514    4.14307962590418    1.66520304242137
H         4.47062531721123    2.79397210574612    0.71051640732224
H         2.77526928301433    3.23628109124782    0.55835127759925
C         1.95591890865327    2.53565909176151    3.16611601125288
O         0.98751868686082    1.58913251619145    2.69504841318987
C         1.41880991152198    3.94239846907095    2.89257330431871
H         1.16359799439990    4.05279811302937    1.84361221246771
H         0.51611570156883    4.09418803621505    3.47959902315453
H         2.14995625074246    4.69349870108970    3.17680001973992
C         2.08548764000101    2.34007770319813    4.68119765951914
H         2.37514833259689    1.31813476793819    4.90506580495690
H         2.80894900794775    3.03132329828534    5.10187801937405
H         1.11611972255066    2.52208946367553    5.13969330770347
B         2.27819999999770   -1.33089999999973    0.17410000000074
O         3.21823628983262   -2.11777617083189    0.80149210142566
C         4.43753174007242   -2.13901247135711    0.04777673411827
C         5.40415736146885   -1.17582215822979    0.74571150471500
H         4.93126812214994   -0.20115553990217    0.82848201767652
H         5.59496668679226   -1.54512110268756    1.75054291750247
H         6.34656084964145   -1.10173427051919    0.21223351785715
C         5.02404237620974   -3.55017788141200    0.06976575066409
H         5.28990405035961   -3.80298416864798    1.09278869037001
H         5.91666397339418   -3.59235526148371   -0.54789563436000
H         4.30542200004624   -4.28382082858142   -0.27996635351238
C         3.97893727735811   -1.63095114788260   -1.36409240693470
O         2.72584708093096   -0.98689780822289   -1.08108643368674
C         4.92520961310397   -0.62836559400815   -2.02183855839476
H         5.91241305465581   -1.06598781300352   -2.14126507218690
H         4.53924670075958   -0.36447516660748   -3.00337954851356
H         4.99304226317043    0.27711398386252   -1.42857938946048
C         3.68931295996602   -2.76920513588354   -2.35164817673305
H         2.99780460779152   -3.48272224749049   -1.91198151560605
H         3.21980103546644   -2.34861201679700   -3.23758716752470
H         4.60468910854203   -3.27564264504466   -2.64195138154578
H        -3.10934802909953   -3.21633037499237   -3.37495261870750
H        -4.99527493617233    1.87620648871483    0.88985869149741
C         0.23589999999999   -1.68140000000013    2.96029999999903
C        -0.98786646614687   -2.09066196931851    3.48432445098566
C         1.21554793777805   -1.51647284162651    3.95661492605492
Br       -2.42043575669657   -2.74329211284971    2.38306900496639
C        -1.26262167360861   -2.12897898154904    4.85364201130356
C         0.84952450485639   -1.61067397732936    5.32756961185592
C         2.62211264875901   -1.30425505402334    3.94062914229210
N        -0.37151537575195   -1.87047656277161    5.78845132107526
H        -2.25192910574039   -2.39371704003822    5.20321151400887
N         1.96224902740200   -1.43153470931397    6.08058126296159
C         3.03308090751447   -1.26457795685459    5.23861140477935
H         3.21196064104149   -1.21992760116239    3.05272038167125
H         1.99107435540258   -1.47115126307723    7.08541656152764
H         4.01884668653539   -1.13328121584549    5.64175613594341
