   98
 energy: -144.446762877213 gnorm: 0.000188928450 xtb: 6.4.1 (1a32961)
N        -0.91656467234737   -2.02576030599089   -0.36150468869469
C        -2.17177958251878   -1.56274925246311   -0.51785693679431
C        -3.06890018865876   -2.19711167560450   -1.38820878134484
C        -2.66441346350487   -3.29844732147964   -2.10881521175946
C        -1.35851427264566   -3.75728895549975   -1.94680731173040
C        -0.53633240669206   -3.08932486926567   -1.06475524859250
H         0.48137767998145   -3.41460627674570   -0.90029001670471
H        -0.99778743841681   -4.61513548231511   -2.49071658328654
H        -4.07728965578076   -1.83294349202712   -1.49625461334285
C        -2.52411815682121   -0.38213477010127    0.25727633649581
N        -1.58318306603440    0.08249163465234    1.10854976692655
C        -1.86664988509320    1.15508183322273    1.84563808160978
C        -3.06709432872003    1.83055543986153    1.77984531924454
C        -4.03826601212285    1.37784860701319    0.88949825230010
C        -3.75864055161536    0.26622038791959    0.12558351117146
H        -4.49412535265242   -0.09487535019199   -0.57408239984761
H        -3.24397623261202    2.68874793488163    2.40787506698949
H        -1.07875833228412    1.47817567304848    2.50846019253273
Ir        0.42149999999991   -0.81650000000004    0.91329999999995
B         0.40272848812174    0.62161541540441   -0.59913959398973
O        -0.19568906035155    0.32162926571646   -1.80862583959487
C        -0.28349118707168    1.49758951461200   -2.62016911464798
C         0.03560757143513    1.14465158874848   -4.07095200698418
H         0.97266531779693    0.60177169017141   -4.13516484912916
H         0.09275364317625    2.04811611687037   -4.67265894556254
H        -0.75333839681892    0.50883480120196   -4.46558518846326
C        -1.73111780529255    2.00127041233642   -2.52944719080902
H        -1.88474892007087    2.86902143300992   -3.16410951817139
H        -2.39759306953152    1.20334113534301   -2.85129583755959
H        -1.97808146043721    2.25086373795019   -1.49936844530954
C         0.73830628785231    2.46211031004876   -1.93341677564468
O         0.81597884854623    1.93551635128697   -0.60142071038119
C         2.14483827064126    2.34807768138746   -2.53399074902107
H         2.46855122826652    1.31129671315433   -2.48301655855254
H         2.17042733574611    2.70870059418162   -3.55824149746683
H         2.83007420483226    2.94054451333492   -1.93242036655655
C         0.31661593379862    3.92957605672762   -1.89315363956791
H        -0.59114133914480    4.06413431152180   -1.31308682600508
H         1.10615358021010    4.51420503214152   -1.42701136352491
H         0.15878229438023    4.29801331890783   -2.90362790635351
B         1.57704329250787    0.63730952184385    1.87650641356797
O         2.93581985804820    0.83099059926450    1.79955860789106
C         3.30003974287555    2.07911574535375    2.40440272641604
C         4.58604333381442    1.90184586140289    3.21118531583188
H         4.49343740642968    1.07640503115097    3.90887899983380
H         5.40477725524202    1.68123700037428    2.53111773921360
H         4.81777647760001    2.81550641838583    3.75157941045653
C         3.54748906752352    3.06372520763867    1.25530818205939
H         3.81011921482201    4.05111004651223    1.62318130820074
H         4.36369456180956    2.68421668107360    0.64459830417463
H         2.65805789404737    3.11022093412836    0.63260397132783
C         2.03333745307694    2.43762983966483    3.25666593417831
O         1.01882176160489    1.59907020257070    2.68929453269271
C         1.58662912781714    3.89628104939892    3.16127399819715
H         1.30788678433704    4.14568983500464    2.14288638289078
H         0.71716771325132    4.04246314518069    3.79762745740762
H         2.38138430518361    4.55661645495103    3.49762130668866
C         2.16674712638128    2.04891856060795    4.73448449740299
H         2.43600748569879    0.99989986752958    4.81685479736069
H         2.90735797766331    2.66453604913562    5.23562237400190
H         1.20291619527458    2.18882317985905    5.21865727344344
B         2.27819999999970   -1.33089999999961    0.17410000000060
O         3.13797010286460   -2.26108895761103    0.72036442399314
C         4.40238395749065   -2.23627356757494    0.04618899613296
C         5.36981458943421   -1.46944489546597    0.95491205182470
H         4.94708502116336   -0.49313661589763    1.17509710049787
H         5.46949894534009   -2.01477191525222    1.89034531887304
H         6.35009441930665   -1.36927540794205    0.49962607013768
C         4.90768071198087   -3.66758769421905   -0.13643660566675
H         5.08190868447695   -4.10412525597968    0.84344771444811
H         5.84006279135797   -3.66704082821028   -0.69398490572593
H         4.17713169090662   -4.28197523022734   -0.65177737453004
C         4.07213389970808   -1.47212579130300   -1.28454369316293
O         2.82504143675202   -0.82710505030335   -0.98427471715224
C         5.09922443181802   -0.41404062179724   -1.68530919355519
H         6.07858934014418   -0.86676968725130   -1.81301517144207
H         4.79679071315311    0.03789085260118   -2.62664076494471
H         5.14822101441793    0.36748833610648   -0.93505391451318
C         3.82388217404385   -2.40672407367486   -2.47625705567458
H         3.06138333606911   -3.13960123082971   -2.22738456685294
H         3.45736487110152   -1.81436872917175   -3.31112969541959
H         4.73773682988186   -2.91145179330852   -2.77457486459597
H        -3.34523383014897   -3.79462150936462   -2.78373982189947
H        -4.98715386920783    1.88461094547892    0.79819126784042
C         0.23589999999828   -1.68140000000102    2.96029999999992
C        -1.06166375074277   -1.95401641930764    3.37039986271969
C         1.19081823865086   -1.66327938614465    3.98698639391846
N        -1.46200239124751   -2.08696697129009    4.63946250618176
H        -1.86700752187393   -2.08121011537639    2.65635732110747
C         0.76530278929711   -1.81213901925404    5.33529797471727
C         2.60777970831325   -1.55289858308390    4.02602541832806
C        -0.58149106150619   -2.00432608586332    5.61578619016385
N         1.87250749324509   -1.77250767777201    6.13185190322330
C         2.97642408555758   -1.62526690838561    5.33597921572259
H         3.22920394097935   -1.43735161350322    3.16317118621926
H        -0.96461587607284   -2.11630437532599    6.62235007909939
H         1.87890202676034   -1.86354319037689    7.13298231480321
H         3.95537942004554   -1.58283649911202    5.77465350066578
