  104
 energy: -153.033557896437 gnorm: 0.000190224105 xtb: 6.4.1 (1a32961)
N        -0.91748504632050   -1.92524439478911   -0.47972171014794
C        -2.11977021627324   -1.35759803465619   -0.68388033922362
C        -2.92596734481677   -1.74860391350940   -1.75851064284782
C        -2.49434280930772   -2.73564184934058   -2.61805095883310
C        -1.25294959553135   -3.32203862974116   -2.38887085720907
C        -0.51086493149201   -2.87776833773631   -1.31513253190309
H         0.46044304116915   -3.30056059326162   -1.09920822168913
H        -0.87655346635567   -4.10079209389301   -3.03207930165659
H        -3.88017778038483   -1.27751476060780   -1.92718002624853
C        -2.51954062137859   -0.32772884697384    0.26897049563351
N        -1.59734880118581    0.03883375611518    1.17983111351465
C        -1.92976912206263    0.94082299381999    2.09739860533936
C        -3.17058290566816    1.54167300172780    2.16150698190423
C        -4.12740958325702    1.18728187192089    1.21647949704495
C        -3.79474589519517    0.24634221276067    0.26582637215531
H        -4.53072915059181   -0.05766877734107   -0.45959480529630
H        -3.38948012905351    2.25894245154300    2.93624379459258
H        -1.15136734565492    1.18947346921882    2.80240716827514
Ir        0.42149999999998   -0.81649999999993    0.91330000000006
B         0.44071222669174    0.65997699976066   -0.56943516072575
O        -0.26513717643615    0.47725723602486   -1.74589942080327
C        -0.31337156293556    1.70307578085081   -2.48435289724225
C        -0.15953678340383    1.41216925318353   -3.97498794314339
H         0.71800027004988    0.80185749025164   -4.16034976955729
H        -0.08245399003188    2.34310785040719   -4.53063590729945
H        -1.03313434244187    0.86596493437627   -4.32279586694991
C        -1.69392958084846    2.32549321608568   -2.23025659643351
H        -1.82177050645934    3.24409713526824   -2.79524034150383
H        -2.45807204897909    1.61257959014855   -2.53391974417671
H        -1.82420276036803    2.52478485751721   -1.16837492733632
C         0.85002250606328    2.53015935890403   -1.84575812526758
O         0.98851808083882    1.92095196757148   -0.55476296153624
C         2.18377421895946    2.32689741441500   -2.57477632531281
H         2.41095857250541    1.26419883249248   -2.60977638031534
H         2.15767164543886    2.74730400430208   -3.57589187595297
H         2.97072769117695    2.81515876246293   -2.00499364859160
C         0.57292531924780    4.02415616950289   -1.68971465876739
H        -0.25670876793725    4.20069947870870   -1.01202544945259
H         1.45529370033791    4.50952720236247   -1.27907403422174
H         0.35076002249526    4.46510327378258   -2.65807252488762
B         1.55529620166768    0.65554895372438    1.86476813586791
O         2.92059854817198    0.77115951023100    1.94735523787679
C         3.28014449172580    2.05147766962497    2.48844138947194
C         4.44202785918422    1.88491528340359    3.46744365973833
H         4.20952740167303    1.15070193322876    4.23130288537296
H         5.31750756950071    1.53993509004796    2.92332121661615
H         4.67457203543383    2.83706854393648    3.93623030515547
C         3.73062422641835    2.91282902345732    1.30322645262211
H         3.99156711442587    3.91933954054922    1.61583398674508
H         4.60176845367004    2.44759780050861    0.84768004972484
H         2.93546618166969    2.93394696109549    0.56322147346599
C         1.93811487832828    2.54866729007469    3.13324811872433
O         0.95535072718324    1.70189121351828    2.52216340477052
C         1.58751144788448    4.00640848915962    2.83765339358917
H         1.44981040497203    4.15344237757653    1.77176828992640
H         0.65499930181355    4.25547707513310    3.33806087284676
H         2.36908699460427    4.66592231506065    3.20452165099504
C         1.86404566290661    2.30964101395251    4.64686747830608
H         2.04170066816887    1.26141377758135    4.86876783800272
H         2.58140409367790    2.92954738489158    5.17562670404740
H         0.86261754812393    2.55875733123658    4.99039602585405
B         2.27820000000035   -1.33090000000004    0.17409999999978
O         3.10539626501052   -2.29029118672633    0.72104503989262
C         4.40275310692324   -2.23779920093452    0.11373372355224
C         5.31617053998306   -1.50861031155144    1.10503209869789
H         4.87625996045774   -0.54464148143946    1.34372504926218
H         5.36246552010312   -2.09158766336548    2.02139664539340
H         6.32005756277570   -1.38827794450627    0.71008295998578
C         4.92127615855849   -3.65982897190796   -0.10068099133629
H         5.04125794936476   -4.13700624241229    0.86830951254772
H         5.88401642195704   -3.63518955148429   -0.60319178702980
H         4.22365231636290   -4.25257390080181   -0.68270939499431
C         4.13964707994506   -1.41938875854481   -1.20030137731659
O         2.87316348589482   -0.79255863116875   -0.94202826026267
C         5.17717673272822   -0.33794732802769   -1.49763303419432
H         6.16583579989551   -0.77779429238205   -1.59412819180045
H         4.91944636708966    0.15567114047651   -2.43116725147165
H         5.17899455209708    0.40776836268989   -0.71045341186534
C         3.96560079154706   -2.30216088564536   -2.44331425399680
H         3.19603314309933   -3.04911731487606   -2.27030301875297
H         3.64425424648594   -1.67567074004789   -3.27180045379642
H         4.89882545972799   -2.78876105465015   -2.70993246666667
H        -3.10704705545397   -3.04434228962332   -3.45147894204790
H        -5.11256109426316    1.62883183374989    1.23173803879476
C         0.23590000000149   -1.68140000000012    2.96029999999835
C        -1.02218715773033   -2.14823676528736    3.35555131445092
C         1.16548045441289   -1.38119204980963    3.95565473090619
C        -2.01141645143195   -2.73241406838440    2.40324808322140
C        -1.37702187666299   -2.16021492272870    4.70998777038121
C         0.82079868225110   -1.42243207249540    5.29425197291991
H         2.17026036441573   -1.12150406553998    3.66224763578832
O        -3.09667635149733   -2.23656034179699    2.17453960556102
C        -1.59559109767767   -4.06309697998738    1.83927294907179
O        -2.62427546240523   -2.64711549982400    5.08996105931178
C        -0.46106447264084   -1.78331628191093    5.67858830581883
H         1.55143067459194   -1.18079370863877    6.05235365223308
H        -1.71377971835405   -4.79947919668370    2.63430780594809
H        -0.55078953971154   -4.04709802306050    1.54456720969809
H        -2.23170977259750   -4.33935247762516    1.00202855302012
C        -3.59774497515474   -1.63854175488957    5.29086740237592
H        -0.74711255802214   -1.81740972886948    6.71890504912617
H        -4.49030065558483   -2.15021274258646    5.64609462623047
H        -3.81822499397753   -1.12110747982910    4.35104715306877
H        -3.26359977642509   -0.91023852484160    6.03732747313566
