   97
 energy: -143.923865984290 gnorm: 0.000236488291 xtb: 6.4.1 (1a32961)
N        -0.94844579888492   -2.00720711846928   -0.36039996157349
C        -2.18133182297255   -1.49606246994137   -0.54307273274439
C        -3.06491975743710   -2.06470098889050   -1.47018171452050
C        -2.66975010801199   -3.15185933444658   -2.21756469615836
C        -1.38789546152303   -3.66271736481375   -2.02482911293103
C        -0.57734374322889   -3.05689032868292   -1.08815486937126
H         0.42144052328296   -3.42451973257490   -0.89797278492432
H        -1.03549081146864   -4.51145261295514   -2.58807291843814
H        -4.05358530865129   -1.65832439734745   -1.60629106428754
C        -2.52096125726109   -0.33078789242924    0.26221816720889
N        -1.57349281881872    0.10378904699344    1.12168411618705
C        -1.84174634722734    1.16144496250359    1.88533244893379
C        -3.03448443468365    1.85247333332567    1.83758556799322
C        -4.01325385532708    1.43050801917180    0.94074825551233
C        -3.74965001787435    0.33252328779598    0.15116956856316
H        -4.49399415897892   -0.00711577018360   -0.54987590160913
H        -3.19997509931565    2.69765103603227    2.48567359855286
H        -1.05050279785043    1.45504698632246    2.55782508468587
Ir        0.42149999999996   -0.81649999999905    0.91329999999985
B         0.38746020947836    0.60593954889564   -0.61078049978397
O        -0.14508910161005    0.27273514981074   -1.84164937094308
C        -0.24941247653514    1.43949170159410   -2.66529175041250
C         0.15419600933742    1.09346395110938   -4.09628551780498
H         1.11937845567930    0.59829218238217   -4.11143930831452
H         0.19453848525552    1.99446405603782   -4.70302852706751
H        -0.58237019641400    0.41564095967008   -4.52099924563870
C        -1.72132149368321    1.87645162030895   -2.64620220132573
H        -1.88379788781872    2.73278416289134   -3.29410293822345
H        -2.33508385811647    1.04734864580155   -2.99302678224977
H        -2.02702839113666    2.12114941566176   -1.63077508885039
C         0.69337989912549    2.45352050623607   -1.93858656183724
O         0.72596600639836    1.94146661695287   -0.59913435096734
C         2.13113314808412    2.39462190387945   -2.46886432391185
H         2.49601077533782    1.37307289132742   -2.39151359921674
H         2.19106596648662    2.74788761762262   -3.49426833333662
H         2.76144637788915    3.02006671909929   -1.84141772849140
C         0.20806479772030    3.90160924976233   -1.93512295394708
H        -0.73518807319685    4.00190406030442   -1.40704408424682
H         0.94536526691933    4.52308642917421   -1.43249759330104
H         0.09115801209584    4.25531761438581   -2.95634429153471
B         1.60054316577658    0.66076367900318    1.82467306066078
O         2.90833242209838    1.00442181418939    1.59057007425317
C         3.25201963597754    2.21335667341823    2.28168080468680
C         4.59820840450847    2.02635436054735    2.98434982399621
H         4.58684069880246    1.14550561829111    3.61828606015108
H         5.37377330338084    1.89171878016790    2.23418943889651
H         4.83729947854450    2.90287940884593    3.57972030325823
C         3.38955375448019    3.30382046997682    1.21288694073522
H         3.61426744305170    4.26942148890217    1.65578434071298
H         4.19760905833882    3.02633518958141    0.53942683402899
H         2.47219783010753    3.35378267690455    0.63317927658759
C         2.03332373301107    2.43635082108997    3.25062944393395
O         1.05846952261434    1.50202775670890    2.76952429564078
C         1.42512789803197    3.83947939397425    3.20034941321349
H         1.05493226698964    4.06323332278585    2.20515417542973
H         0.58822906005475    3.88313689278119    3.89317848803525
H         2.16117407281404    4.58226834657960    3.49466801285211
C         2.32752383617339    2.08083869787429    4.71326105959679
H         2.70074085881111    1.06447895442598    4.79149865340366
H         3.04689779025227    2.77116266328585    5.14284057154091
H         1.39927699761306    2.13984032826206    5.27677280624627
B         2.27820000000384   -1.33089999999985    0.17409999999972
O         3.13350955147170   -2.27458410006913    0.70468742849714
C         4.39896003868614   -2.23160458395590    0.03430401257892
C         5.34529927690721   -1.42961305375694    0.93435197110670
H         4.91787381659965   -0.44621705152762    1.11099121896807
H         5.42205072941355   -1.93637536241914    1.89374672733536
H         6.33530036111862   -1.34401392191984    0.49722950910140
C         4.93725884922453   -3.65205734962375   -0.13169263516612
H         5.13591057170471   -4.06718175659522    0.85290549604994
H         5.86214873087305   -3.63593655899016   -0.70146878878409
H         4.21606952352349   -4.29293642186973   -0.62797963057378
C         4.05276127195138   -1.48785992690745   -1.30179661775096
O         2.81992169428332   -0.82312071649804   -0.98635991907314
C         5.08607544181816   -0.45336913087022   -1.74382978518834
H         6.05986374225690   -0.92037545683479   -1.86297867014222
H         4.78160053286463   -0.02790956008704   -2.69696257682635
H         5.14936368988740    0.34999851645309   -1.01786954981458
C         3.76686327738997   -2.44560199256070   -2.46663290865290
H         3.01452041601376   -3.17412293114848   -2.17683275335046
H         3.37201065477421   -1.87088870200094   -3.30104138797076
H         4.67173653138351   -2.95541214263300   -2.78327209339796
H        -3.33975656253843   -3.59653294938801   -2.93774648224358
H        -4.95707078762468    1.94905274603573    0.86461902640079
C         0.23590000000897   -1.68140000000650    2.96029999999290
C        -1.07294451508903   -2.00984313205027    3.29946324430810
C         1.15400304197918   -1.60631862894575    4.00377705831517
C        -1.49273804588807   -2.14224314088089    4.62493734971542
H        -1.80829158441954   -2.16883808624702    2.52250583304180
Cl        2.83653964288366   -1.37875314719694    3.65682534432203
C         0.76881831534209   -1.73516016090008    5.32867241471586
N        -2.82283498553810   -2.36616665382827    4.92068905727545
C        -0.55146495581613   -1.98577314363051    5.64372210127841
H         1.51070405010524   -1.65230365400820    6.10679017282675
H        -3.38094805629859   -2.75353445749138    4.17763125397334
H        -3.01136812183849   -2.75034488794687    5.83203860280318
H        -0.85326225838558   -2.08188019375680    6.67579901952702
