  106
 energy: -150.872055938622 gnorm: 0.000514686640 xtb: 6.4.1 (1a32961)
N        -0.91635550133267   -2.29164978330377   -0.14427249217996
C        -2.19945922338870   -1.93228661663379   -0.30545795133937
C        -3.12443709269195   -2.80040551125055   -0.90072182494524
C        -2.70776018746184   -4.03024399726983   -1.36215098688648
C        -1.36615231616860   -4.37534172236372   -1.21922287667634
C        -0.52256996244870   -3.47631657366811   -0.59895112282707
H         0.52216882317411   -3.71002659641120   -0.44990823715363
H        -0.99378794801710   -5.32376419067636   -1.57102408209935
H        -4.16226607957901   -2.52110720512713   -0.98250324168846
C        -2.56472103287285   -0.60681478702462    0.17892968602732
N        -1.66921080983067    0.01863937136452    0.97053789096094
C        -1.98189459933366    1.22189704502539    1.44669250590885
C        -3.16026375830106    1.87813687417711    1.15225868885647
C        -4.07110991043090    1.26274301415110    0.29841088951410
C        -3.76577398230619    0.00958032210342   -0.18873828072868
H        -4.44530143630028   -0.48102366373891   -0.86663737316693
H        -3.36191546034141    2.85023116325471    1.57248209825352
H        -1.23439108377248    1.67083591733357    2.08199714119021
Ir        0.42150000000009   -0.81650000000013    0.91329999999992
B         0.35316099250963    0.33597985588017   -0.81160360526687
O        -0.03602388587571   -0.31623115535667   -1.96589706370668
C        -0.15087385567173    0.60841155018971   -3.05046960493432
C         0.46502633939593   -0.00929027653254   -4.30481908805743
H         1.47274741659888   -0.35554255059768   -4.10131457247462
H         0.48059861732334    0.71523393991216   -5.11489921338732
H        -0.13343030690849   -0.86490108266793   -4.60936988403671
C        -1.64940213211602    0.84413325634820   -3.28895826159706
H        -1.81313807671718    1.50871483851278   -4.13219389416549
H        -2.12280027932323   -0.11386069246474   -3.49577396083066
H        -2.11126045551903    1.26162834420716   -2.39649052221151
C         0.59100224750275    1.87375448070889   -2.50219079991647
O         0.55859505995956    1.67091322808709   -1.08198883873490
C         2.06983991790485    1.90646841810128   -2.90729304051604
H         2.54779122846979    0.99321769667664   -2.56173556098406
H         2.18481785511468    2.01922619365821   -3.98143028397113
H         2.54911763700806    2.74624447894860   -2.40975781167056
C        -0.06269069705354    3.20862857744451   -2.85435710961412
H        -1.06105713195355    3.28421072081763   -2.43466743397451
H         0.53850937062963    4.01698885628291   -2.44541977301535
H        -0.11409250319597    3.32201186502684   -3.93429719888114
B         1.50000079723962    0.77111857737727    1.72543702741144
O         2.83162758889052    1.10333782137702    1.61359504459502
C         3.01333856503652    2.48097812803149    1.97315191125916
C         4.34358643090464    2.67808215282508    2.69492164014207
H         4.41440224842505    2.03579072669543    3.56439294728228
H         5.15620809555210    2.43128078969083    2.01663850945704
H         4.44406561678093    3.71667200347060    2.99995289057941
C         3.02928762212396    3.27289365635700    0.65962592076961
H         3.15652967056114    4.33717471780125    0.83573260205074
H         3.85620345033128    2.91053159557298    0.05357534518516
H         2.10760809197535    3.08046934860236    0.11625612748732
C         1.74655235725128    2.77698015958394    2.84114422419169
O         0.82918591322566    1.76815086049470    2.40190262666368
C         1.12614911526016    4.15606745824006    2.62369021208330
H         0.77262759447388    4.26055775347916    1.60312932963762
H         0.27804628740720    4.27610757123008    3.29368869035980
H         1.85524541129272    4.93247808088338    2.83977517367938
C         1.98310750330134    2.54986743439416    4.33934776657292
H         2.38284948827888    1.55104718093987    4.49395980906221
H         2.65945929176377    3.29484989457211    4.74768566328563
H         1.02826302117493    2.61700429057193    4.85628758536088
B         2.27819999999960   -1.33089999999957    0.17409999999928
O         3.05260285106489   -2.36541993079037    0.67148343009659
C         4.17003913154037   -2.61726529694116   -0.19329113821625
C         5.41948872788926   -2.89670257024268    0.63735842438190
H         5.57273123445556   -2.11445848262467    1.37082441125818
H         5.29320527094794   -3.83781821390652    1.16528534141248
H         6.28781907268584   -2.97230574045449   -0.01140629412135
C         3.82297904105753   -3.86671880977008   -1.01572327986022
H         3.60617071406276   -4.68227611466630   -0.32959906816860
H         4.65024076248947   -4.15572151987622   -1.65653874135132
H         2.93715580482985   -3.68300789039203   -1.61856248063941
C         4.22950100364671   -1.31463786761455   -1.05803387336954
O         2.89548412159951   -0.79611729786209   -0.93251875709940
C         5.17029540647450   -0.25587939698635   -0.47284799363102
H         6.20414273700869   -0.58612905312106   -0.49365331958641
H         5.07506639359228    0.65320376848921   -1.06193737563651
H         4.85798419171830   -0.02741195095335    0.54221408642267
C         4.56960923240314   -1.53924891552675   -2.53067316035297
H         3.80938994051426   -2.13678525313502   -3.02296656540939
H         4.62657402703544   -0.57801354636286   -3.03537799743871
H         5.53256788748895   -2.03544208042491   -2.61595341198563
H        -3.40847638525461   -4.71197885476590   -1.81995849967922
H        -4.99176434132143    1.75283336863097    0.01892031560352
C         0.23589999999886   -1.68140000000126    2.96029999999777
C        -0.97012609212376   -2.16150553865965    3.44226753709237
N         0.96948142754562   -1.35903216715051    4.05079658049263
C        -0.94804662785576   -2.08984101694466    4.84525556674185
H        -1.78596355249124   -2.52247385714858    2.84357723979329
C         0.28041986294372   -1.58917382385006    5.19458446497349
O         2.25229557354636   -0.88235239072229    4.03359437939883
H        -1.73577144594773   -2.37126268735670    5.51838317972071
H         0.70720816928438   -1.36535433586546    6.15062993020129
Si        3.55278444648911   -1.81804758256300    4.52399209939722
C         3.61859571891271   -1.91952468557068    6.43687671783557
C         3.38409390369550   -3.56273109580854    3.79121474744981
C         5.00201352912800   -0.78705661170057    3.87021027395333
H         4.58012370825542   -2.29046404071568    6.77686356567547
H         2.85817894939328   -2.58775725362134    6.83260316197898
H         3.46766077541339   -0.94362078368917    6.89196655210290
H         2.51421627134794   -4.07247322938985    4.19850348143188
H         4.25130349568973   -4.18371731648531    3.98744067567583
H         3.24734631105572   -3.48411572692456    2.71668827802983
H         4.71871731485425   -0.33153892205052    2.92750535750744
H         5.88191414905377   -1.40126466349445    3.71497863345393
H         5.27861559747539    0.00326668589953    4.56088079858065
