  115
 energy: -163.643148029105 gnorm: 0.000152569239 xtb: 6.4.1 (1a32961)
N        -0.89650430885776   -2.03504646009815   -0.39159541799181
C        -2.15083737391758   -1.57432612781731   -0.56246411079319
C        -3.01780425620685   -2.17612438667070   -1.48480304503148
C        -2.58573539835403   -3.24471130584838   -2.23817955866154
C        -1.28260910317223   -3.70424080840825   -2.05665899295390
C        -0.49017405025209   -3.06773111174013   -1.12536334929639
H         0.52439547619452   -3.39402635302735   -0.94436429238529
H        -0.90179483880840   -4.53821467663487   -2.62364011175058
H        -4.02406461649810   -1.81172651552596   -1.61076528750940
C        -2.53489466738721   -0.43359320920978    0.25694370382029
N        -1.61014618366214    0.02127931229685    1.13093666792510
C        -1.92731072136726    1.04956219232507    1.91466024087805
C        -3.14579496280734    1.69489505679055    1.87213944190991
C        -4.10023192277365    1.25472851640134    0.95785601782168
C        -3.78760087632175    0.18387316652366    0.14966940166453
H        -4.51277876869569   -0.17037345109634   -0.56414315635623
H        -3.34890198606181    2.52003833212560    2.53551555541494
H        -1.15178858843870    1.36403326525344    2.59574917539103
Ir        0.42149999999994   -0.81649999999992    0.91330000000015
B         0.42042975751530    0.63008276604212   -0.59133204162528
O        -0.26744587596586    0.38006282905700   -1.76701800746503
C        -0.32167038839603    1.56572249605074   -2.56603515295399
C        -0.13152692610962    1.20432981810361   -4.03721339559812
H         0.75539636566717    0.59391906773807   -4.17079748258583
H        -0.04891873699934    2.10716795940035   -4.63683955780561
H        -0.99167948660591    0.63326536570775   -4.37877835799017
C        -1.71745293013404    2.17582188077724   -2.37097871704518
H        -1.85065665591515    3.05934703155776   -2.98841508217491
H        -2.46344359294828    1.43332479590750   -2.64797180450206
H        -1.87070342025784    2.43133747120460   -1.32430639280767
C         0.81420891381481    2.44435768655993   -1.94732702728508
O         0.93620080475493    1.90659791870062   -0.62393020579896
C         2.16700361130618    2.22518867018938   -2.63595877897630
H         2.40877524393070    1.16529670620612   -2.61444522648510
H         2.16015297432507    2.59720415605796   -3.65651168316782
H         2.93293053455516    2.75114510256451   -2.07073415184577
C         0.51076055926826    3.93981881232443   -1.88110838932310
H        -0.33991045244490    4.14090191458694   -1.23738438081020
H         1.37430139412667    4.46087685572174   -1.47457882419617
H         0.30896923156922    4.32254974887344   -2.87846096511943
B         1.53964123531555    0.64488826645786    1.89339265315500
O         2.90831707032477    0.76593426278099    1.95894177607126
C         3.26740087440376    2.02626227808960    2.54223535656875
C         4.46274469867901    1.84089627166133    3.47562626106475
H         4.26578985801665    1.06651570974587    4.20989579567438
H         5.32973136503881    1.54416105446014    2.89056575587440
H         4.68718067242394    2.77448363669734    3.98438522335787
C         3.65708550191584    2.94719988367025    1.37922367459472
H         3.91909490361266    3.94223595806423    1.72617375952212
H         4.51338796060823    2.51510452629319    0.86611312228562
H         2.83144575177664    2.99198174030205    0.67331880635945
C         1.94303900718510    2.46895478482757    3.25327940022450
O         0.94993368009798    1.66950298867778    2.59919239952295
C         1.58811816824223    3.94603693260050    3.08662042220350
H         1.42035245642727    4.18319119431966    2.04135950376799
H         0.67294132429193    4.15558871419018    3.63501602136543
H         2.38410639542487    4.57084447739897    3.48261105396075
C         1.90753838929548    2.10918513121846    4.74434949177575
H         2.12770661768743    1.05498308366959    4.88418447367986
H         2.61360108589104    2.71119759493077    5.30814205296380
H         0.90470710035891    2.29344678471121    5.12309174686560
B         2.27819999999952   -1.33089999999985    0.17409999999989
O         3.12851883332507   -2.23887730757909    0.77534515076686
C         4.42024988194778   -2.20429146297225    0.15807002688679
C         5.33301663011232   -1.41212527593835    1.10116528453725
H         4.87882309978507   -0.44556985533803    1.29852281383958
H         5.40133214377785   -1.94866535763280    2.04468782035547
H         6.33018537257846   -1.29433512283417    0.68876577164944
C         4.95578423015199   -3.62993395410644    0.01941549278981
H         5.09171276764105   -4.04927921037747    1.01267443462866
H         5.91327130392568   -3.62217162443934   -0.49356932739138
H         4.25989746764345   -4.26375316998066   -0.51977770705396
C         4.13893083749265   -1.46475265045172   -1.19873032273846
O         2.86096623632119   -0.84936530709604   -0.97447436387612
C         5.15513485941703   -0.38103607184004   -1.55668238168118
H         6.15194019948849   -0.80639032424823   -1.63282143487670
H         4.88629057505883    0.05714435851342   -2.51452363167184
H         5.14459885750390    0.40557435618890   -0.81022070469800
C         3.98286221096539   -2.41828932182705   -2.39106351718163
H         3.22762292775354   -3.16939620901824   -2.17706855960249
H         3.65011488360902   -1.84523688997829   -3.25318456667230
H         4.92547347559240   -2.90100341375634   -2.63059921921704
H        -3.24377959136787   -3.71515768199020   -2.95300672052548
H        -5.06256985946430    1.73844750061526    0.88327725611294
C         0.23589999999882   -1.68140000000125    2.96030000000062
C        -1.04769248224819   -2.06472928066248    3.38660989617780
C         1.24023294465617   -1.51099180944996    3.89588672304051
C        -1.36941290879373   -2.19831426129467    4.72053319911888
H        -1.81650074603906   -2.26265469383574    2.65182196758395
C         0.92214919294670   -1.65405191482582    5.23884079998180
H         2.24620447298488   -1.27451220277112    3.58957575868038
C        -0.38036898013129   -1.99057319667176    5.68446764022017
H        -2.37162636669888   -2.47452624750653    5.01760524243067
N         1.70242970945120   -1.52475573065532    6.34413040535570
C        -0.32456846350337   -2.07224866802857    7.10981215783839
O         3.05423969135901   -1.28435903482531    6.31561942702759
C         0.96769953550432   -1.79652741408500    7.46272149801810
C        -1.45634427308926   -2.39925789924905    8.02551023890149
Si        4.21289201725694   -2.48852672219800    6.11431747908413
H         1.42558494323984   -1.75600987119531    8.43149757838442
H        -1.12920940426766   -2.35479154631496    9.06106367235384
H        -1.83588598788707   -3.40015326116379    7.81998043154323
H        -2.27619989949987   -1.69546931009881    7.88504077471972
C         4.40463960303560   -3.43764639274278    7.76023528694156
C         3.75229034187314   -3.70158121185936    4.72386867889121
C         5.72622725727650   -1.41559969277612    5.71841846302351
H         3.49320239238282   -3.97009968825006    8.02082507782247
H         4.63542725212905   -2.76230470698800    8.57973009495149
H         5.20339879028745   -4.16986137814520    7.70559591799845
H         2.78516771312208   -4.16194349881953    4.91070632002523
H         4.48322006400102   -4.49896649503145    4.63724307713317
H         3.68496616226175   -3.20386613373486    3.76012378737082
H         5.84087784700110   -0.61028736459483    6.43654717087855
H         5.64046371822294   -0.97025241650709    4.73244613252734
H         6.63264843391877   -2.01051983270697    5.73607741196810
