   98
 energy: -139.597686009020 gnorm: 0.000218465676 xtb: 6.4.1 (1a32961)
N        -0.89868698493037   -2.05228311861911   -0.36525550303996
C        -2.16427846787842   -1.61592721707054   -0.51512908387471
C        -3.04953202823274   -2.26499910399999   -1.38695970890595
C        -2.62184043875211   -3.35186631953575   -2.11630287536219
C        -1.30539392040282   -3.78229669795380   -1.96112483702064
C        -0.49612885426784   -3.10208466937539   -1.07624934441709
H         0.52875120703700   -3.40578982304336   -0.91499794173370
H        -0.92707103357249   -4.62807370328774   -2.51201483298180
H        -4.06647372682497   -1.92378615680155   -1.49037968938310
C        -2.54035147032398   -0.44973363314412    0.27140285501723
N        -1.60858747447934    0.02927177054564    1.12510925723072
C        -1.91595688666167    1.08641543287595    1.87430149227056
C        -3.13219234108569    1.73453581312046    1.81715712807479
C        -4.09433390124108    1.26777603103311    0.92412185209702
C        -3.79071894237684    0.16985659051305    0.14956013006544
H        -4.51960066334788   -0.20237806472769   -0.55130819832356
H        -3.32796868357333    2.58267291521283    2.45320752973390
H        -1.13431263282063    1.42032951961643    2.53907109502513
Ir        0.42150000000008   -0.81649999999992    0.91329999999996
B         0.39650855177272    0.61969160059722   -0.60143026877199
O        -0.26087338118201    0.33261294332008   -1.78555944935309
C        -0.34722712787059    1.50831444181037   -2.59676627556760
C        -0.11463129892981    1.14239275874586   -4.06069337395901
H         0.79789987753921    0.56587271504394   -4.17075867476487
H        -0.05468120200501    2.04278550650919   -4.66669955658765
H        -0.94486896692176    0.53561415414130   -4.41464563847029
C        -1.76950892075415    2.06376742565412   -2.43303038567478
H        -1.92648858502558    2.93354271334600   -3.06404194901457
H        -2.48012977798597    1.28848770972201   -2.71305642342038
H        -1.95142946180799    2.32629331465485   -1.39266068046199
C         0.74065595650328    2.43744711985642   -1.96570432501051
O         0.85954278807550    1.91608716639575   -0.63535204474264
C         2.11320403745266    2.26766669055205   -2.62869297045274
H         2.39904981992611    1.21926519055310   -2.58946190950777
H         2.10778920248411    2.62621294586441   -3.65409248177828
H         2.84706780159255    2.83287671576972   -2.05883539762686
C         0.37580244772708    3.91985577264465   -1.91708677311756
H        -0.49453210855334    4.09127905570812   -1.29131916915426
H         1.20960401477599    4.47788839238046   -1.49780181250015
H         0.17846132057381    4.28731505875890   -2.92100657074385
B         1.55069366316849    0.65510262620328    1.86737975496997
O         2.91932234710637    0.79597580683477    1.88808163098510
C         3.27647831315511    2.07355666090570    2.43347013659176
C         4.51661586004160    1.93317714646577    3.31514296843334
H         4.38051552464740    1.15605908246288    4.05979444528719
H         5.36646727772795    1.66122255880670    2.69439852625590
H         4.73199854528297    2.87703770772613    3.80872111595103
C         3.59473443601368    2.98269576196821    1.24018004665743
H         3.85998764779763    3.98587788429390    1.56053981476345
H         4.42981443894213    2.55401123925443    0.69046223648444
H         2.73432566093556    3.00585149117562    0.57634255944412
C         1.97351550327148    2.50107126557644    3.19142204874219
O         0.96978239205173    1.67952380009960    2.58232243299600
C         1.58775029902638    3.97044086678546    3.02841595367864
H         1.37171924495953    4.19478883990883    1.98923602948762
H         0.69332210057438    4.17006578645869    3.61351534882811
H         2.38940617029033    4.61178339260128    3.38449984539728
C         2.00142943189972    2.14816263946698    4.68410982028182
H         2.22541333508156    1.09288487073206    4.81143872941240
H         2.73024320331982    2.75209774539708    5.21592405715854
H         1.01517474594050    2.33190267282148    5.10376247098141
B         2.27819999999989   -1.33089999999946    0.17410000000035
O         3.12518131992533   -2.27129918083258    0.72324411886822
C         4.40256972084805   -2.23026512223397    0.07565562694334
C         5.33849465718484   -1.45169420627982    1.00665478856033
H         4.89643612066703   -0.48211322128439    1.21773620495625
H         5.41820387601389   -1.99412189618014    1.94543540534874
H         6.32891578176839   -1.33986216370235    0.57645830630603
C         4.93221923357021   -3.65334663051023   -0.10085647731070
H         5.09789220148907   -4.08876896105104    0.88098700872313
H         5.87341121203267   -3.63709041520472   -0.64333238807680
H         4.21994294159411   -4.27829754220752   -0.62903560970750
C         4.08992080383826   -1.46677727574560   -1.25926953885800
O         2.84055258840549   -0.81995254257013   -0.97378654499580
C         5.12334798940858   -0.41130545087611   -1.64934862796477
H         6.10340759908053   -0.86616540526878   -1.76388941517594
H         4.83310296927987    0.04026286530240   -2.59472755534646
H         5.16497297532567    0.37090290958388   -0.89935556863596
C         3.85387788287360   -2.40350366074769   -2.45204969005896
H         3.09428265854940   -3.14073682110223   -2.20682797511316
H         3.48930583795012   -1.81402454498655   -3.29000486102849
H         4.77236644274845   -2.90350269279806   -2.74411072998057
H        -3.29319172963671   -3.85912591814202   -2.79255142213896
H        -5.05501503669705    1.75306577986223    0.83916001026571
C         0.23589999999884   -1.68139999999961    2.96029999999997
C        -1.04785728243892   -2.06380514800074    3.33702632863560
C         1.19432686392492   -1.51629437426418    3.95589931720405
C        -1.40993547766889   -2.18528531034518    4.67331581512960
H        -1.79659343903551   -2.27727849851031    2.58509869782264
C         0.84763529287760   -1.63921790864819    5.29113014431058
H         2.21256461743107   -1.29390360819971    3.67533623326581
C        -0.45009095443574   -1.95801917921825    5.65203697641927
C        -2.81066539256568   -2.56103006969135    5.06311961160510
H         1.59524419244285   -1.49461708067718    6.05932598776587
H        -0.71717676654896   -2.04947174723997    6.69569872397439
H        -3.40768823749545   -2.79968130780956    4.18608023721437
H        -3.28813478856487   -1.73694386281063    5.59282313686557
H        -2.80397177310290   -3.42422754813147    5.72746258329416
