  136
 energy: -185.378965132326 gnorm: 0.000350522615 xtb: 6.4.1 (1a32961)
N        -0.94728657792071   -2.04144079122345   -0.33200845822814
C        -2.20919385877296   -1.57915149392732   -0.42854519503072
C        -3.09313597577089   -2.09178581840734   -1.38628425308097
C        -2.67496227552116   -3.08666545424877   -2.24221196701659
C        -1.37009134765874   -3.56065459589747   -2.12520335545281
C        -0.55560497317620   -3.00444039746480   -1.16151379012296
H         0.46457294994070   -3.33874315635922   -1.03483097766913
H        -1.00072980674239   -4.33965267564790   -2.77223901497086
H        -4.09539957265810   -1.70430521778484   -1.47076791655428
C        -2.57545675484496   -0.51793808942943    0.49981999136813
N        -1.58062134322144   -0.01810480250762    1.26426861409857
C        -1.86485533085296    0.95688622545611    2.12570660806431
C        -3.12682538645357    1.49158596967164    2.28074957011088
C        -4.16525108461521    0.98473401727077    1.50246883558947
C        -3.88240623673821   -0.02588507638977    0.60974717290186
H        -4.67351223878364   -0.43889204924670    0.00592489713262
H        -3.29848746973069    2.28057650780075    2.99466456258812
H        -1.02659663537975    1.31696913012916    2.70264610479236
Ir        0.42150000000383   -0.81650000000200    0.91330000000178
B         0.30215297294193    0.59008514893515   -0.63374495331386
O        -0.44709255848555    0.28636184783370   -1.76227453596750
C        -0.67863258039981    1.47005495275232   -2.53075923479069
C        -0.60396403285976    1.14583035679285   -4.02059730782127
H         0.31390790387063    0.61700672103090   -4.25548563121664
H        -0.65868153204109    2.06078292656670   -4.60515665250132
H        -1.44219970669862    0.50670324503395   -4.28823809208526
C        -2.09604508426476    1.95588026804663   -2.19095521238443
H        -2.36299930585827    2.83054313039630   -2.77669105049803
H        -2.79982913843587    1.15448846424302   -2.40817169875069
H        -2.16663432458945    2.18811720626299   -1.12997860453020
C         0.43017535296502    2.43605935842373   -2.00352242751489
O         0.70291389601386    1.90686886632613   -0.69954941133425
C         1.73045313414870    2.32673055978223   -2.80953797282229
H         2.05398975244041    1.28842380181118   -2.82584999046139
H         1.60262959543997    2.70268934190836   -3.82069930660334
H         2.50226277966496    2.90704906787524   -2.30939067975576
C         0.01434512731011    3.90196723168949   -1.89779977581916
H        -0.78747483421529    4.03231765406808   -1.17747900664954
H         0.86617448846763    4.49166887387945   -1.56737842200471
H        -0.30815450885998    4.26778975769731   -2.86944383810270
B         1.61378934106966    0.69452042038094    1.75341470757431
O         2.96108716012996    0.90729637841742    1.57606522949980
C         3.32943233308946    2.20828196153067    2.05208998866878
C         4.68393948288457    2.14515454240579    2.75841137787700
H         4.69901144560096    1.36251180846623    3.50988416764959
H         5.45883441803719    1.92634456893057    2.02792518072405
H         4.90556521748186    3.10160197789712    3.22451779444541
C         3.44445082328256    3.11297397531067    0.81923283133418
H         3.70545630994674    4.13068274647474    1.09433606267036
H         4.21755539379629    2.71287240964719    0.16682974255846
H         2.50417290794578    3.08984041159325    0.27567871435821
C         2.12420896915619    2.58902682821162    2.97693265764516
O         1.08751099119586    1.70256299916028    2.53505552408154
C         1.64051965966616    4.03186448655693    2.83856704706009
H         1.26401597451222    4.21266489021189    1.83724366251451
H         0.83253907488557    4.20550150674359    3.54433813882177
H         2.45039325366265    4.72260379498153    3.05650504753908
C         2.38585847348104    2.28505338830461    4.45692032701179
H         2.72462326286620    1.26024369973585    4.58099271624083
H         3.12252674479916    2.96637927038171    4.87215227344549
H         1.45314779383549    2.39449615783073    5.00261843265738
B         2.27820000000321   -1.33089999999352    0.17410000000702
O         3.18464004977692   -2.20590944100844    0.73179622847996
C         4.42479835974952   -2.17095001880152    0.01636037689839
C         5.40014875801737   -1.35008584308406    0.86648882700439
H         4.95923215866595   -0.37841286257845    1.06668213868867
H         5.53632476401712   -1.85659071507601    1.81881761219781
H         6.36434339290548   -1.24364943898800    0.37887927268214
C         4.96390832218412   -3.59457478850152   -0.13181865189308
H         5.17593087974006   -3.98985610606643    0.85811046240899
H         5.88111185881626   -3.58892740872269   -0.71413364652761
H         4.23716052848956   -4.24675380178502   -0.60458833010853
C         4.03385041894764   -1.46515025100922   -1.33222515786059
O         2.76437283326959   -0.87133883413098   -1.03112317335405
C         4.99598741123297   -0.36673825643226   -1.78399637409150
H         5.99306130812616   -0.77078265396275   -1.93562390675163
H         4.63871511795219    0.05222980560187   -2.72161788719467
H         5.02733260540959    0.42953652094920   -1.04847334160632
C         3.81488311558657   -2.44496065008813   -2.49364073688872
H         3.09424772211402   -3.20783089732606   -2.21263486586383
H         3.40821666327462   -1.89540320048466   -3.33930851588618
H         4.74852817335981   -2.91250396128093   -2.79127294490386
H        -3.34315600803314   -3.48598264418935   -2.99020663133911
H        -5.16880821292304    1.37109367292859    1.59651781331308
C         0.23589999998780   -1.68139999998173    2.96029999998268
C        -0.77709353007509   -2.47287691801259    3.45843134635664
C         1.07746856120871   -1.43109274255652    4.06299717921402
N        -0.61855380857156   -2.66776933480772    4.79864835941342
H        -1.60343292509405   -2.93224269843519    2.94870079685461
C         0.53091912786195   -2.01992873261817    5.19015773663483
H         1.99371925617418   -0.87708119903416    4.04662559142662
C        -1.37369953256057   -3.65324677576752    5.52922153967272
C         1.23809037798504   -2.08267937893937    6.48028944729780
H        -1.55829052648387   -4.51339520607600    4.88409790424114
H        -2.33636665491187   -3.25660379704513    5.86112818984616
H        -0.80198730811803   -3.98467492935601    6.39263230831777
O         2.46772437904112   -2.17908047744406    6.45906935900399
N         0.56683331317428   -2.04093555421952    7.66097400508150
C         1.31666953648451   -2.33566633955532    8.87090707600795
C        -0.82227157709933   -1.65270359949892    7.79597842264640
C         1.08056329659562   -3.75860245935551    9.38872990221995
H         1.05808708738693   -1.61396182257505    9.64593027723144
H         2.37458306428530   -2.21227246992810    8.62705513080300
C        -1.06828883728819   -0.45966207960028    8.72858554351828
H        -1.40176503384002   -2.50008864059591    8.18067115634657
H        -1.18824818068361   -1.38644020929133    6.80649484169505
C         1.61250416400169   -4.82141377404329    8.42777256935973
H         0.01536514452707   -3.91079648639320    9.57029868574484
H         1.60083797506852   -3.85066632894997   10.34442786651451
C        -0.40479206277326    0.83756338736622    8.27003498639279
H        -0.73914266323070   -0.69818703202555    9.74061806559978
H        -2.14946662279235   -0.30984323379198    8.77298463346571
C         1.73014945371270   -6.20956360022044    9.05969021501281
H         2.60489958959789   -4.51639988470578    8.08676951201553
H         0.98084506184662   -4.87178284733671    7.53931274827965
C        -1.03439300694382    1.41201538606507    6.99923429764835
H         0.66196954242356    0.67019773249399    8.10830432010542
H        -0.50526842344198    1.57137235320223    9.07392539869607
C         0.41388135132672   -6.81450953049806    9.55305633787473
H         2.42156784411916   -6.14908587259206    9.90431228082013
H         2.17235732568118   -6.88517608624498    8.32306696048355
C        -0.76010973328706    2.90790242417062    6.85589874113184
H        -2.11648475561309    1.25969654589566    7.03124432704862
H        -0.64842434945524    0.88989831495957    6.12054560171205
C        -0.59724600778744   -7.05354568855820    8.43710304018112
H        -0.02652953352629   -6.16715763955119   10.31328559140967
H         0.64126212190601   -7.77060130424137   10.03196469148162
C        -1.38663718712985    3.47776740412330    5.58871071321767
H         0.31864791162472    3.07928351447787    6.84441685096924
H        -1.16535195985538    3.43272970523807    7.72503288900563
H        -0.92827281287212   -6.11410477547054    8.00271400884964
H        -1.47046527733869   -7.57417786926227    8.82464190266239
H        -0.15661599223535   -7.66028943468010    7.64874715398779
H        -1.00273513881093    2.96430129220813    4.70913989808509
H        -1.16780384895186    4.53974808641010    5.49709455499072
H        -2.46738792646795    3.35212992333439    5.61360357682805
