  117
 energy: -179.849817631589 gnorm: 0.000433300937 xtb: 6.4.1 (1a32961)
N        -0.90541971859218   -1.87576689772891   -0.49423504473357
C        -2.08261845713860   -1.28035446737042   -0.76642651160953
C        -2.93561251742210   -1.78963556387622   -1.75414586677037
C        -2.55988869920660   -2.89485112719919   -2.48324618200365
C        -1.32608690148220   -3.48343717536451   -2.21204132181757
C        -0.54992290884571   -2.94168882484352   -1.20953050771010
H         0.40544397882458   -3.37652475013286   -0.95004811982263
H        -0.98803361646945   -4.34697733533431   -2.76168437754027
H        -3.89165781308251   -1.32999685984599   -1.94029198813227
C        -2.38599976092492   -0.07988238961917   -0.00541011192258
N        -1.49534034693255    0.26679405659697    0.95030098355889
C        -1.71433434579451    1.38360470097305    1.64574020118940
C        -2.79401135387446    2.21383070426447    1.43520074564266
C        -3.71802244361163    1.86991547556081    0.45138607770352
C        -3.50640981889831    0.71536104772040   -0.26975577459626
H        -4.20491101952898    0.43560310189353   -1.04050912916556
H        -2.91987355531911    3.10442515575202    2.02966369812475
H        -0.96998474950498    1.61476310471509    2.39147057818622
Ir        0.42149999999994   -0.81649999999993    0.91329999999998
B         0.57217993391133    0.63859368357055   -0.58037040530936
O         0.09897039562415    0.38479313234065   -1.85075804199063
C         0.15164818428828    1.57462951444841   -2.64674205707841
C         0.65562384370762    1.22227607662963   -4.04460537200006
H         1.58440828904927    0.66473654265352   -3.98629957527835
H         0.80489165431503    2.12537513741745   -4.63048510414837
H        -0.08407046157601    0.59907866905321   -4.54143534664180
C        -1.28133443033956    2.11426005985875   -2.75108217530001
H        -1.32245220293739    2.99284277029785   -3.38792721060787
H        -1.91448337490658    1.33765325353333   -3.17538618615882
H        -1.66492205376004    2.35852765020927   -1.76309879354852
C         1.09694774422847    2.50566875531872   -1.81440310090530
O         1.02667934543316    1.93248678806359   -0.49997476768691
C         2.55988779152905    2.40924061969455   -2.26293495620201
H         2.88382688711537    1.37439707502255   -2.18926524846143
H         2.68988192510017    2.78281899599277   -3.27430281612573
H         3.17470860282592    2.99935613662261   -1.58766879955485
C         0.67634276671763    3.97337959851552   -1.76146501130333
H        -0.29386974869307    4.09004209800311   -1.28885763911693
H         1.40533694657185    4.52996021576164   -1.17751024873960
H         0.64349574554142    4.38752942234188   -2.76586454123092
B         1.62162425279844    0.52507401697535    1.97690322589197
O         2.99472329809316    0.54131191969621    2.03324052705203
C         3.44792185090611    1.75348629821590    2.65259742742771
C         4.65234718909744    1.46104978488346    3.54575965766095
H         4.44283219876559    0.64925917487543    4.23481238885685
H         5.49428000478198    1.16571548818615    2.92465965429292
H         4.92786830419554    2.35064726782780    4.10546075462945
C         3.86538575476111    2.69158323688817    1.51410850716840
H         4.22083361274442    3.64532027895889    1.89230540024092
H         4.66179459091228    2.21514300644567    0.94717058638927
H         3.01911696649910    2.83306547678011    0.84711200382632
C         2.16858522093078    2.25251311742959    3.40699435721355
O         1.11166124473028    1.55049178417173    2.73756075031055
C         1.91165996550714    3.75544044977128    3.31317780797421
H         1.72842212314406    4.04782816243078    2.28472399841158
H         1.03136063524116    4.00242312835514    3.90120525230563
H         2.76117147568816    4.30652399609249    3.70707791509687
C         2.13412591124810    1.82662794812230    4.87954168926165
H         2.29173343260524    0.75540612230015    4.96135572840724
H         2.88822722875086    2.35216293790084    5.45696598532742
H         1.15218493563297    2.05309679812054    5.28816495280460
B         2.27819999999652   -1.33089999999897    0.17410000000188
O         2.98015484142144   -2.44373131917452    0.59420082928183
C         4.29358068068341   -2.45223509054322    0.02048326299416
C         5.24698602337275   -1.94697634437639    1.10884439731373
H         4.91144703720016   -0.97080017297690    1.44799196214752
H         5.19913051694496   -2.62890674498584    1.95460168581322
H         6.27106450279594   -1.89878076851100    0.75239645518920
C         4.67275974446717   -3.88112376918031   -0.36627614114974
H         4.72948025470932   -4.48390298518938    0.53620716753404
H         5.64174922468833   -3.89031300788576   -0.85726889386929
H         3.92968316002339   -4.32353717695976   -1.02111137597963
C         4.14893408905511   -1.45362121170203   -1.17973369005245
O         2.97213987915273   -0.70505022421104   -0.83272555148032
C         5.32691414916617   -0.49850965614385   -1.35945264241698
H         6.24585491863641   -1.05964021699065   -1.50480229870784
H         5.15507849040805    0.12472723012993   -2.23339952498463
H         5.42511129319047    0.14835653955210   -0.49466909928524
C         3.85816915781104   -2.15274531402333   -2.51463769657621
H         2.99477509272686   -2.80459498510210   -2.41458304436408
H         3.62100328782640   -1.39639083917316   -3.25922196259546
H         4.71764110782663   -2.72345534249772   -2.85268168348758
H        -3.20891108775606   -3.29635208216760   -3.24615495420602
H        -4.57709333604140    2.49326894617849    0.25413491299637
C         0.23589999999622   -1.68140000000026    2.96030000000180
C        -1.03919838152331   -1.86645745916047    3.52252848092310
C         1.34866820560074   -1.76555799690971    3.80540994926571
B        -2.40792884653257   -1.86188324395143    2.73719441502322
C        -1.14786586414550   -2.01731962418505    4.91003003777149
C         1.21207748460734   -1.95148123135062    5.17267352858136
H         2.33869032854607   -1.69150220825033    3.38110870701727
C        -3.44209069550545   -0.76787325210935    3.00634288555924
N        -2.80040219255570   -2.91796270124982    1.88404316973486
C        -0.05079167486322   -2.06780923719713    5.74434340852756
H        -2.13343326572337   -2.11945013627107    5.34111448709676
C         2.42291436035351   -2.09532971310869    6.03495702936181
C        -4.61299876314571   -0.78746318131685    2.33688430571437
H        -3.26290047502704    0.03118582469512    3.71405640176073
C        -1.97113311638918   -4.10165743739871    1.74063842011683
C        -3.99426200121078   -2.89031311022339    1.19642951090797
H        -0.16005417474344   -2.20382146290758    6.80964289181109
F         2.25181095529851   -1.62280409624509    7.28825820898837
F         2.79963768217342   -3.38991078469689    6.19828022440066
F         3.51530184098500   -1.46886146714548    5.55962071973703
C        -4.90311732394631   -1.82146156282484    1.39355868643656
H        -5.37499559950093   -0.03084024473532    2.48531332683996
H        -2.52327588185336   -4.98893451854719    2.05816701324734
H        -1.09471799259005   -3.98945059768986    2.37212231729573
H        -1.63967440334472   -4.23345404795658    0.71003082925037
C        -4.35621845253024   -3.89727367374904    0.28751836210372
C        -6.10406825115038   -1.79347929811154    0.67201993305021
C        -5.54206269525417   -3.84164015321289   -0.40862461968242
H        -3.69959942515623   -4.73191179548001    0.10862199980894
C        -6.42655719525101   -2.78286253007912   -0.22401426620557
H        -6.78021670936518   -0.96613980336471    0.83691237046364
H        -5.78638646490405   -4.62953605530437   -1.10576168044252
H        -7.35474924782218   -2.74578708956836   -0.77434351054471
