   95
 energy: -144.715477434045 gnorm: 0.000255827843 xtb: 6.4.1 (1a32961)
N        -0.99050129977088   -2.01852346076553   -0.31691003075612
C        -2.21755162163598   -1.49623666808735   -0.49305036356095
C        -3.11172144863309   -2.05537713611084   -1.41409119291653
C        -2.73211471289485   -3.15102308589529   -2.15932578881779
C        -1.45744604652098   -3.67683341842087   -1.96962935953586
C        -0.63385035549886   -3.07571684758715   -1.03980215397448
H         0.36155099535623   -3.45279387602364   -0.85268091079778
H        -1.11779560851905   -4.53253670262071   -2.52992422820843
H        -4.09511690529185   -1.63686730708623   -1.54977427636622
C        -2.54334919634307   -0.32447849163328    0.31478501193998
N        -1.57869974371676    0.12060984716129    1.14597390095443
C        -1.82852875635791    1.18294528438522    1.90682364105765
C        -3.02722168232198    1.86774596950829    1.88712600130880
C        -4.02750241800674    1.43065854092157    1.02408796075099
C        -3.77938798332100    0.32772856987805    0.23443153355638
H        -4.54304821382292   -0.02328651786014   -0.43934318165352
H        -3.17895922954000    2.71850535397836    2.53129764512011
H        -1.01836146344490    1.48725428971767    2.55166073057289
Ir        0.42150000000003   -0.81649999999991    0.91330000000001
B         0.40009278794015    0.55176661520989   -0.65075295774152
O        -0.10634250042073    0.18163282562814   -1.88084649795623
C        -0.21476138515636    1.32910177547163   -2.73173144342514
C         0.21084869717038    0.95577149610372   -4.14914290522482
H         1.17980057193467    0.46807383717405   -4.13989889616728
H         0.25187830234690    1.84337119991488   -4.77512453096421
H        -0.51428227233146    0.26258292815470   -4.56845261950965
C        -1.69258684776757    1.74568646591698   -2.73718514370056
H        -1.86153636711405    2.58402742694007   -3.40643262546663
H        -2.29064705907266    0.89944102097829   -3.06926365710409
H        -2.01080418108053    2.00912313637828   -1.73034552895920
C         0.70584170233558    2.37039727566559   -2.01477870139791
O         0.72287478215240    1.88942174309978   -0.66259898864099
C         2.15256918645565    2.31461583144289   -2.51958798289157
H         2.52740076439408    1.30032286585917   -2.40526612703791
H         2.22504252636141    2.63918633002000   -3.55352683592643
H         2.76345808723124    2.96600083982742   -1.89965326992302
C         0.20454659251278    3.81227862407362   -2.05213803637624
H        -0.74791807084885    3.91357081794436   -1.54137406606190
H         0.92689863434829    4.45268154019479   -1.55196335338321
H         0.09975916869469    4.14147646093222   -3.08271880405303
B         1.62373662386352    0.63352932245504    1.82786368656255
O         2.94419265498638    0.92852229636568    1.62752082582728
C         3.29276031242464    2.15190290629055    2.29072491546957
C         4.66111072463299    2.00127053818013    2.95510628089823
H         4.69060787903341    1.11858415410180    3.58548887309734
H         5.41977313451358    1.89114889759939    2.18439226454239
H         4.89031509465856    2.88285246265712    3.54722267973174
C         3.36961857586013    3.22889029058230    1.20226129704130
H         3.60508497778676    4.20288801270028    1.62050508457579
H         4.14697970037322    2.94766035666447    0.49567646841273
H         2.42544120333299    3.25982168668455    0.66502469781386
C         2.09738571653274    2.36640820392984    3.28480536881883
O         1.08693594680984    1.49102057762921    2.76411420749099
C         1.54429585861998    3.79082344862357    3.32914556413745
H         1.15339486587978    4.08273595826714    2.36013758955345
H         0.73282092297777    3.83199704742407    4.05177440609640
H         2.32084543402798    4.48588257696157    3.63590939406203
C         2.40584172159958    1.90731306995975    4.71520233097368
H         2.77767759337300    0.88788512902695    4.70894189762164
H         3.13459179802761    2.56074121882738    5.18486661411933
H         1.48509493992327    1.92855915113762    5.29381083640098
B         2.27819999999993   -1.33090000000066    0.17409999999956
O         3.06188556229369   -2.34717899039739    0.67634363597645
C         4.37423620264761   -2.28845240977656    0.10303154714149
C         5.27096642396472   -1.61508820530968    1.14694290708239
H         4.85372400277664   -0.64318850825291    1.39323762634407
H         5.25748143049307   -2.21921024291756    2.05054335784155
H         6.29342249807027   -1.51923789021692    0.79533782785764
C         4.87750133328120   -3.70662874403464   -0.16397902890902
H         4.97305361230677   -4.22663416005332    0.78556513485810
H         5.84981288338697   -3.67317817622406   -0.64721470071463
H         4.18294309568769   -4.26315481019985   -0.78432122533409
C         4.15302515634306   -1.40632608849035   -1.17593530518482
O         2.90423103857682   -0.75137054783934   -0.90195995056659
C         5.22749061103992   -0.34729997531813   -1.41497806936364
H         6.20421279381147   -0.81342419225048   -1.50918153871495
H         5.00229858273154    0.18782119016489   -2.33410043524343
H         5.23478136958899    0.36687942143162   -0.59920941306478
C         3.96139076174929   -2.23022463459220   -2.45616994398530
H         3.16686421997179   -2.95829808002599   -2.31848799251109
H         3.66556082702388   -1.55930970930308   -3.25902207868659
H         4.88106521110638   -2.73435106141638   -2.73671528292549
H        -3.41087179738774   -3.58920399191463   -2.87511599965803
H        -4.97765338345681    1.94043548894325    0.97245975921613
C         0.23589999999881   -1.68139999999928    2.96030000000039
C        -1.06558033470619   -2.01423542570339    3.33780765049428
C         1.16457389121499   -1.59908365221926    3.99237580214889
C        -1.40831999950876   -2.14906388860018    4.67229698070245
H        -1.82823798656830   -2.16902797330740    2.59005690519854
F         2.47566585724363   -1.37907680991302    3.70434793525013
C         0.83814873753540   -1.74222806120208    5.32791599571911
C        -0.47405722175855   -2.00820933912204    5.68359478217660
Cl       -3.05800153327780   -2.51553877559827    5.08623157571737
H         1.60636114334583   -1.65195208245736    6.07976853752070
H        -0.75642211603828   -2.11725161046355    6.71760786649358
