   94
 energy: -144.986906175445 gnorm: 0.000301225660 xtb: 6.4.1 (1a32961)
N        -0.90548065011612   -2.05121856737892   -0.34262600683200
C        -2.19081447751005   -1.66709298164052   -0.40722954700199
C        -3.10807248300068   -2.36144084896755   -1.20580823851137
C        -2.68981476628451   -3.44432824691884   -1.94940871625707
C        -1.35218018119304   -3.82113910953254   -1.88173901954276
C        -0.50992577279364   -3.09476364161487   -1.06463287347041
H         0.53534820503462   -3.35389201552237   -0.97418773638027
H        -0.97959878105945   -4.66075092183499   -2.44556356563188
H        -4.14206375837711   -2.06204867104332   -1.24353154691862
C        -2.56314233732664   -0.49975783508903    0.38801698831580
N        -1.60248999061766    0.03714637939354    1.16327687613027
C        -1.89911453794564    1.09718936145856    1.90763838747385
C        -3.14680741899544    1.68976206967953    1.92829776102356
C        -4.14481177785914    1.15996421389010    1.11811308449438
C        -3.84493965198130    0.06043238294711    0.34162020166356
H        -4.60421723697641   -0.35660117751267   -0.29839994427759
H        -3.33441456180390    2.54248461253382    2.56068392332040
H        -1.08571110481761    1.48656415346910    2.50070208412588
Ir        0.42150000000006   -0.81650000000001    0.91330000000007
B         0.40052382647150    0.60469722420631   -0.61014798316846
O        -0.23469128203136    0.32257753614394   -1.80361757387992
C        -0.29764172694647    1.50126348134149   -2.61579723138186
C        -0.02779824598728    1.13550495071618   -4.07305728154849
H         0.88867886437141    0.56160474645736   -4.15953845728944
H         0.04485144216194    2.03581634631727   -4.67761913387508
H        -0.84728585848369    0.52646472187980   -4.44680945928643
C        -1.72221418876971    2.05849507533897   -2.48590835543748
H        -1.85944276488696    2.93490960193730   -3.11215623603058
H        -2.42646322105137    1.28836261511072   -2.79379673146533
H        -1.93152700652419    2.31065770941249   -1.44819672323047
C         0.77741235721145    2.42670785954510   -1.95630005413279
O         0.86676828262343    1.89810072411654   -0.62488570764694
C         2.16490232834394    2.25729158080100   -2.58682313095359
H         2.44927573702095    1.20891124987810   -2.54088567039454
H         2.18330470109243    2.61675708648877   -3.61146460105744
H         2.88465314216590    2.82222411651076   -1.99934902699600
C         0.41344859574287    3.90904379277452   -1.90769453137974
H        -0.47313246117176    4.07826249524224   -1.30475596495613
H         1.23662266011702    4.46274008258187   -1.46279162304188
H         0.24408977402506    4.28312634179314   -2.91410238001491
B         1.56895910706377    0.63115610848028    1.89236659407486
O         2.93695601138268    0.75781850856256    1.91505368160927
C         3.30495398106080    2.02969156912748    2.47105705867267
C         4.55510313753449    1.87828259770395    3.33584190601334
H         4.42881146091475    1.09513577842342    4.07581326561010
H         5.39672678190319    1.61186631165632    2.70189691681026
H         4.77765119541679    2.81739551372009    3.83505986555499
C         3.60907548191970    2.94954683542143    1.28291590004426
H         3.88262509902827    3.94813671111235    1.61000083521595
H         4.43461619916450    2.52299140955953    0.71783554962160
H         2.73974156383822    2.98200381977879    0.63123025859481
C         2.01160107263511    2.45097908645423    3.24786586122837
O         0.99820325455352    1.64170606839242    2.63359970177257
C         1.63003524352921    3.92360483452231    3.11177280106861
H         1.40416447250379    4.16457919706517    2.07851063763590
H         0.74282495406943    4.11802932998977    3.70943161533799
H         2.43800793329441    4.55596421378680    3.46936925920771
C         2.05160150745643    2.07275052579553    4.73398274088236
H         2.28149841274346    1.01652497249010    4.84294008045012
H         2.78304021034037    2.66978481872609    5.26967442688923
H         1.06857544428752    2.24780199174058    5.16515431475438
B         2.27820000000022   -1.33089999999962    0.17409999999979
O         3.10185003519666   -2.28237417340626    0.73904814380774
C         4.39045397658370   -2.26675983464517    0.10921136032102
C         5.33214301938677   -1.52459245150250    1.06345947047145
H         4.90892905676173   -0.54949673106403    1.28628635200769
H         5.39133266755798   -2.08522845357056    1.99291341667747
H         6.32908567335532   -1.42695498190085    0.64554948610840
C         4.88349752339594   -3.70195660367959   -0.07494942074647
H         5.01693312373240   -4.15379913642336    0.90437811043972
H         5.83566387288903   -3.70627703284704   -0.59774392548684
H         4.16510694174242   -4.30034274073920   -0.62495971096122
C         4.11682790126585   -1.48120443575505   -1.22221725628563
O         2.86690419106676   -0.82321963527297   -0.95734196649494
C         5.16806936548743   -0.42956651980537   -1.57218348853227
H         6.14534354862975   -0.89216797464190   -1.67746907112436
H         4.89955234361055    0.04234970822890   -2.51376038936661
H         5.20313568900421    0.33774290854376   -0.80687462424273
C         3.89782927808068   -2.39569941322074   -2.43468718610652
H         3.12145379759023   -3.12516168705128   -2.22158811288530
H         3.56429460917367   -1.78752196645789   -3.27189432701544
H         4.81613531294655   -2.90472702220998   -2.71102563022123
H        -3.38721799198650   -3.98668882354231   -2.56941858405020
H        -5.13156359858145    1.59725308355520    1.09464980910956
C         0.23589999999960   -1.68139999999982    2.96030000000067
N        -1.03772975103589   -1.98724881033965    3.20717823662766
C         1.16704623472020   -1.60075346921912    4.00493162143813
C        -1.45204068885018   -2.12997250533302    4.44497207648762
C         0.74108608942330   -1.75746028710159    5.30862726994082
H         2.20240300388106   -1.41562104758977    3.77185464063295
C        -0.60611486022134   -2.01422160892665    5.53577964171127
Cl       -3.13399456476139   -2.48614551024562    4.66844504828142
H         1.41230037032498   -1.69268257149088    6.15143449702858
F        -1.06375218121387   -2.16548442856202    6.80405667342021
