   96
 energy: -142.898159030718 gnorm: 0.000225587963 xtb: 6.4.1 (1a32961)
N        -0.90982665926810   -2.03044710396817   -0.36181557269582
C        -2.16315432457727   -1.57116576686406   -0.51621130056560
C        -3.06044243467304   -2.20890757092316   -1.38072223231403
C        -2.65802830539655   -3.31939983229774   -2.09062450863942
C        -1.35499037168090   -3.77910811726796   -1.92554357543025
C        -0.52947011161236   -3.10084592292460   -1.05330319800502
H         0.48901790161870   -3.42332941543974   -0.88791606034906
H        -0.99595729462912   -4.64451814553145   -2.45845560571768
H        -4.06824433956429   -1.84569852472731   -1.49020436823830
C        -2.52238458085036   -0.39256833826237    0.26485772545761
N        -1.58241862802758    0.08480035217322    1.10516948242105
C        -1.87558475841862    1.14479608394636    1.85497259873310
C        -3.09287827053160    1.79375342151030    1.81543990897855
C        -4.06495344748392    1.32648865431146    0.93717646336586
C        -3.77110636609605    0.22837163089836    0.15730621057047
H        -4.51059118759211   -0.14617411482310   -0.52982797144026
H        -3.27757307234604    2.64286153234231    2.45341806411661
H        -1.08104499078719    1.48447589388256    2.50194659238786
Ir        0.42150000000009   -0.81649999999993    0.91330000000006
B         0.43698789355780    0.59287269647631   -0.61769078058512
O        -0.14639767157811    0.29026762957456   -1.83193012447089
C        -0.23369099711636    1.46941840403841   -2.64038555545633
C         0.09527160492296    1.12254207285760   -4.09014393620376
H         1.03914607397401    0.59129725767792   -4.15220494672461
H         0.14331833729719    2.02769647072633   -4.68992540403724
H        -0.68450463786562    0.47775338401298   -4.48817335889952
C        -1.68445048626098    1.96435960386318   -2.55430306526854
H        -1.84016647489860    2.83548086565855   -3.18360617716339
H        -2.34418956256108    1.16438607194923   -2.88456068424165
H        -1.93808365957644    2.20459684493298   -1.52357627525936
C         0.78006146402923    2.43622941039455   -1.94381734925470
O         0.85478124289710    1.90288091453955   -0.61341847342222
C         2.19067878826045    2.33451826802139   -2.53669558512028
H         2.52256476042648    1.30036708939965   -2.48573466136673
H         2.21875325117775    2.69747377169204   -3.55991203864269
H         2.86790519000137    2.93110082267670   -1.93005573361485
C         0.34866660833897    3.90048523521110   -1.89683273847364
H        -0.56371520945526    4.02516388663011   -1.32208963705991
H         1.13112727418382    4.48680774520193   -1.42134067734433
H         0.19554920078329    4.27431947504460   -2.90595492256991
B         1.57883726360300    0.61547159099898    1.91007188685452
O         2.94911478654732    0.70799226824788    1.96360196200985
C         3.33385878379053    1.97988012901034    2.50792125006068
C         4.56337277219707    1.81458611103128    3.39913787979617
H         4.40575066467001    1.04254212460450    4.14472071042457
H         5.41209800264629    1.52399865798036    2.78558956577867
H         4.79442484287805    2.75490555064503    3.89219356924840
C         3.67909523005849    2.87543179557867    1.31246583393625
H         3.97449001457199    3.87083066163448    1.63046365089752
H         4.50008096530536    2.41978219848612    0.76372842510515
H         2.81986899670733    2.92247442846842    0.64823431643896
C         2.03515160740189    2.44059398258051    3.25233401453241
O         1.01595642408910    1.65075732562218    2.62271716928346
C         1.69555641320225    3.92143435211854    3.09585356808307
H         1.50123309254052    4.16088000013256    2.05590059145326
H         0.79957666397987    4.14465267884137    3.66988687613426
H         2.51193375681794    4.53412342317806    3.46849474996534
C         2.03310395545696    2.07562581104778    4.74238082488405
H         2.22726766601984    1.01377176526085    4.86564036787603
H         2.77148583017905    2.65527550913086    5.28749810717288
H         1.04731036122634    2.28593057504775    5.15047188233119
B         2.27819999999982   -1.33089999999992    0.17409999999983
O         3.06444016041849   -2.35401326607511    0.66364007726206
C         4.36502179206915   -2.31536529622170    0.05982449024965
C         5.29872963473454   -1.65925106692276    1.08270224270903
H         4.89027456118410   -0.69159995615125    1.36027074139905
H         5.32365172213377   -2.28128642528050    1.97381939138106
H         6.30700705760065   -1.55623007553348    0.69417936616473
C         4.83960723835410   -3.74037148861194   -0.22211776666011
H         4.94781994843113   -4.26633124469071    0.72271405999615
H         5.80133460559030   -3.72040773143950   -0.72681605643125
H         4.12306234466141   -4.28372763044242   -0.82883281868374
C         4.12849215689835   -1.42794016836008   -1.21180329340919
O         2.90154419640456   -0.74725005532990   -0.90265808781710
C         5.21987490860455   -0.39471076892564   -1.48452167859551
H         6.17957916670877   -0.88598531879215   -1.61818016188937
H         4.97487699852943    0.15113833085382   -2.39206241951454
H         5.27961761385839    0.31595082670222   -0.66777661524057
C         3.88195042009591   -2.24801014511225   -2.48519880019682
H         3.07669491070875   -2.95943244988388   -2.32355940262336
H         3.57535529778991   -1.57193888525632   -3.27967187725909
H         4.78200907087989   -2.77107253527425   -2.79356170816289
H        -3.34109191570118   -3.82112962988410   -2.75883418386044
H        -5.02765325442037    1.80942492225570    0.86635079337327
C         0.23590000000007   -1.68140000000026    2.96030000000027
C        -0.98383165197786   -2.03046455799086    3.51735825444405
C         1.12544373450166   -1.62726038767520    4.06701732688709
O        -0.88245927648034   -2.14400466609340    4.88704980868519
C        -2.20490831911249   -2.28720975390816    2.90698918517943
C         0.40762315730533   -1.89617628171889    5.19689264635624
H         2.17238313308711   -1.41488669857438    4.00245150885171
N        -3.20659199441545   -2.51542476207593    2.38226356817144
C         0.80685485821918   -1.96486846140074    6.62662055277758
H         1.87459823354780   -1.79266639352851    6.71376691658450
H         0.56178497224447   -2.94333812649009    7.03725029146021
H         0.27020952618597   -1.21509684080082    7.20640667487242
