   98
 energy: -139.597509080212 gnorm: 0.000190316674 xtb: 6.4.0 (f63f532)
N        -0.90844186699738   -2.04831840512383   -0.35726212535020
C        -2.17142726310943   -1.60395031627218   -0.50625734651483
C        -3.06563338290185   -2.25510744053375   -1.36726952421283
C        -2.64906094916468   -3.35176308137154   -2.08832940030534
C        -1.33497366640367   -3.79013903936029   -1.93494110604651
C        -0.51680430186143   -3.10796870350574   -1.05977346793357
H         0.50601397711286   -3.41884016370776   -0.89897509128138
H        -0.96522276067028   -4.64377145097491   -2.47951027615664
H        -4.08093876687542   -1.90808218612409   -1.46767161304554
C        -2.53512579618933   -0.42724172502208    0.27003983756643
N        -1.60078527798405    0.04369699721045    1.12564339843877
C        -1.89770629086236    1.10874010598251    1.86827178798375
C        -3.10369805588059    1.77441580942558    1.79957173572353
C        -4.06642223908253    1.31818629718629    0.90154730667013
C        -3.77471336775820    0.21102704504576    0.13552220700384
H        -4.50374083044386   -0.15336385655061   -0.56932259351993
H        -3.29115121946366    2.62832334111774    2.43036818347508
H        -1.11578353505022    1.43444591642025    2.53672939303227
Ir        0.42150000000004   -0.81649999999978    0.91329999999966
B         0.39379581552447    0.61899117438905   -0.60265909379895
O        -0.24643623912865    0.32212167239356   -1.79337642085765
C        -0.33625191961523    1.49429869864044   -2.60938271665701
C        -0.07560109254287    1.12633549340851   -4.06807851612302
H         0.84758898190894    0.56411250861164   -4.16176557351974
H        -0.02109945355681    2.02493029952135   -4.67731407147987
H        -0.89056363240412    0.50460556257931   -4.43127889668515
C        -1.76834395603937    2.03105861656386   -2.47113957864045
H        -1.92447049902292    2.89968803722608   -3.10396006260342
H        -2.46382244065838    1.24748104808892   -2.76573482798622
H        -1.97287958586951    2.29014424629659   -1.43411849678491
C         0.72912362145955    2.44019531742428   -1.96457633133420
O         0.83855248654846    1.92205391891976   -0.63220298984450
C         2.11258885890831    2.29066445475794   -2.60960372301381
H         2.41439304046255    1.24700159869229   -2.56405573639978
H         2.11427078038388    2.64675588733951   -3.63585149772937
H         2.83016127751922    2.86874707854580   -2.03205824063704
C         0.34160670410310    3.91712392968507   -1.92277151376545
H        -0.54144166393356    4.07625886597471   -1.31172363579960
H         1.15999020805710    4.48773542411661   -1.49024741727140
H         0.15565461694194    4.28092571464065   -2.93020514343124
B         1.56154718315947    0.65074185821612    1.86598923245186
O         2.93094950141621    0.79036270299490    1.87404479811023
C         3.29332187146117    2.06774161128172    2.41683066383178
C         4.54722634696087    1.93026531539442    3.27913791663969
H         4.42598980289470    1.15173850008705    4.02492670937792
H         5.38872245869014    1.66316549921366    2.64493990965847
H         4.76630623783431    2.87443032771396    3.77059695158763
C         3.59029857917833    2.98093310541539    1.22121777881471
H         3.86135682300815    3.98296763536994    1.54046495510084
H         4.41519329792174    2.55396910165563    0.65511269330434
H         2.71819574225492    3.00642879844241    0.57293562687577
C         2.00071747380820    2.48989795573736    3.19452409190100
O         0.98937177705432    1.67273905285579    2.59180896373430
C         1.61398328042250    3.96074181453156    3.04839863719088
H         1.38560874231543    4.19465572400015    2.01398432254393
H         0.72699475549565    4.15599508093210    3.64612916476976
H         2.42059998569080    4.59827174812552    3.40036701824716
C         2.04866731520327    2.12585857393066    4.68404059628417
H         2.27390339148955    1.06960702546921    4.80053176404362
H         2.78539505828666    2.72534556684197    5.21002806601877
H         1.06851497659225    2.30713341250340    5.11872672186588
B         2.27820000000057   -1.33090000000002    0.17410000000140
O         3.11227702075699   -2.29489633398908    0.70188193662027
C         4.39433068117200   -2.24867059377383    0.06391782786932
C         5.33243202347052   -1.51070449809092    1.02535401446047
H         4.90133998391001   -0.54205896828207    1.26197753034977
H         5.39752886459140   -2.08246185195580    1.94772502509673
H         6.32769130648958   -1.39880491162879    0.60646056362827
C         4.90840219383047   -3.67185415758702   -0.15323802583229
H         5.06025951035888   -4.14022106551220    0.81561270233035
H         5.85445113629347   -3.64997188782589   -0.68697738980446
H         4.19339287114307   -4.27084815957070   -0.70722346526979
C         4.10000816818130   -1.44055250210313   -1.24893369457296
O         2.85338220776251   -0.79294908760433   -0.95449196952758
C         5.14497147055695   -0.38116059439976   -1.59540107218626
H         6.12234635634705   -0.83973085941556   -1.71755345888603
H         4.86548269815585    0.10420150003130   -2.52716335959668
H         5.18640307922822    0.37514389824271   -0.81932998773853
C         3.86755439022663   -2.33596981115653   -2.47374164774344
H         3.09616794494465   -3.07098683048503   -2.26090619473448
H         3.51988740821254   -1.71550209054485   -3.29638333638253
H         4.78342233654574   -2.83746172590029   -2.77145647000370
H        -3.32707199133881   -3.86059684851974   -2.75669852398198
H        -5.01826674715020    1.81875856345378    0.80624287377949
C         0.23590000000315   -1.68140000000012    2.96030000000098
C        -1.04461794238494   -2.07049911215483    3.33869794951830
C         1.19739228655783   -1.52092357615212    3.95461707466987
C        -1.40059097449920   -2.20836778916522    4.67612777747917
H        -1.79755844653003   -2.27707269502199    2.58909498089746
C         0.85658112976014   -1.65727048477031    5.28940683278001
H         2.21379935502003   -1.29221174538281    3.67236270360318
C        -0.43832823964991   -1.98773293385785    5.65263881210212
C        -2.79093141409614   -2.62938652959096    5.05664708229387
H         1.60608598926238   -1.51526775456951    6.05620368838840
H        -0.69883855726097   -2.09218009826978    6.69673271026248
H        -2.83023189851916   -3.71182832160660    5.18481980678874
H        -3.50591351714790   -2.35563015336085    4.28423517269124
H        -3.09045918133470   -2.16900107315467    5.99565102002109
