  106
 energy: -152.620607593579 gnorm: 0.000461253616 xtb: 6.4.0 (f63f532)
N        -0.92837271238914   -1.92424147699628   -0.45700166651261
C        -2.11351868381373   -1.33617898594791   -0.71383971362820
C        -2.96240340087562   -1.83407787538067   -1.71003933820600
C        -2.58083487707060   -2.93045589060696   -2.45070892965460
C        -1.34932591061527   -3.52081294284721   -2.18062271986515
C        -0.57228182242134   -2.98207604082031   -1.17752236754510
H         0.38240615408398   -3.41920192426180   -0.92239122854980
H        -1.01163731247832   -4.38342299420607   -2.73112432938856
H        -3.91551606532827   -1.36885239093979   -1.90230493811732
C        -2.44101590404862   -0.16827601848652    0.09327163214840
N        -1.53839794610226    0.17942266615405    1.04245773537564
C        -1.80302721195379    1.23185453573450    1.81745094711063
C        -2.94131007773800    2.00060284302221    1.69674567264708
C        -3.86961461442630    1.66763153661635    0.71239742291766
C        -3.61180002323941    0.57657359378830   -0.08943718763624
H        -4.31797849979270    0.30404438602054   -0.85613299710233
H        -3.10531359199036    2.83703682332811    2.35663577578772
H        -1.05207781135647    1.45739314595214    2.55849398833381
Ir        0.42150000000108   -0.81649999999753    0.91330000000158
B         0.51284451015262    0.64829199506621   -0.58857229157251
O        -0.16972053834279    0.46576520878684   -1.77643913387631
C        -0.12948194133799    1.66489874303193   -2.55822824974741
C         0.07358072330242    1.30926192973165   -4.02889658045741
H         0.93002911475747    0.65465560575574   -4.15149327590677
H         0.21513217272873    2.21253086585723   -4.61670890420030
H        -0.80767280265999    0.78685431468253   -4.39391143493529
C        -1.48766241119618    2.36102859922824   -2.39142239602562
H        -1.54302397997699    3.26054246106868   -2.99727938623222
H        -2.27193891168232    1.67438875534001   -2.70352377939041
H        -1.65490008143993    2.61149341630672   -1.34590327867700
C         1.04330622080714    2.46353112490787   -1.89969001588293
O         1.11155265616083    1.88704222370431   -0.58769211192297
C         2.39160219205773    2.18935395378316   -2.57614927414745
H         2.57944898542147    1.11875644814705   -2.57095163059715
H         2.41282337461690    2.57772387350218   -3.59025252389272
H         3.17809827607291    2.66837235757826   -1.99759868234068
C         0.82225379221009    3.97158022120780   -1.79436504051344
H        -0.02355006034059    4.20232234834145   -1.15417620241981
H         1.70845491234147    4.43163019098581   -1.36340756791072
H         0.65567433396642    4.39360378993114   -2.78217003189703
B         1.60957691558952    0.62854243573379    1.85235148863366
O         2.98103348338156    0.69819228874255    1.85149519923021
C         3.42486999287915    1.93951781912655    2.41505881492491
C         4.62459597428913    1.68619026592565    3.32836904202981
H         4.39466413146047    0.93647570247796    4.07782248735264
H         5.45416223893216    1.31939459966506    2.72925424277561
H         4.92629062567593    2.60931011031734    3.81579000634148
C         3.86012208204907    2.82256551069413    1.23936804366800
H         4.18320905043894    3.80408564718355    1.57280726600115
H         4.68652225173760    2.33486329625566    0.72681478548166
H         3.03404325823167    2.90823886004722    0.53904807638505
C         2.13996125126301    2.47085866632337    3.14347510865452
O         1.08975404177318    1.68485053394369    2.56284340517192
C         1.83998521230981    3.95102469920380    2.91059761215108
H         1.65701059782704    4.14114319881527    1.85827238454085
H         0.94656867475729    4.22390143441065    3.46664203674747
H         2.66870349762535    4.56233063706023    3.25697058329550
C         2.13465890480975    2.18605033635217    4.65059948227932
H         2.26882092945055    1.12289435883003    4.82801138745978
H         2.91071095266839    2.75064574887353    5.15802029776706
H         1.16726922253432    2.47201803004474    5.05655538104064
B         2.27819999999567   -1.33090000000179    0.17409999999909
O         3.16070065488724   -2.20412065062110    0.77012221945774
C         4.37623958002864   -2.28281548258696    0.01514013384094
C         5.41038953878239   -1.42427001116691    0.75049986119695
H         5.01375983205596   -0.42002808381329    0.86678644393581
H         5.55984089608511   -1.84165729599433    1.74303262435627
H         6.36048896722407   -1.40545027553403    0.22547651947146
C         4.85573342925125   -3.73380251867705   -0.02453139489528
H         5.11657340784628   -4.04438045141842    0.98365298027229
H         5.73319198925054   -3.82151049461573   -0.65918828138466
H         4.07689262419667   -4.39608862278895   -0.38750192534142
C         3.95870323079851   -1.68503632735534   -1.37377674591459
O         2.75943181479886   -0.95799376017538   -1.06146202250084
C         4.98223084087201   -0.73816942264388   -1.99762493121779
H         5.93120134171985   -1.24927057841618   -2.13443179794295
H         4.62020155201114   -0.40902327361172   -2.96854811827803
H         5.12291491145466    0.13723004472636   -1.37305424151526
C         3.57830040700760   -2.75851645799676   -2.40285960183466
H         2.83001014127965   -3.42791865266192   -1.98750210415705
H         3.14427604425016   -2.26936387966501   -3.27173849423297
H         4.44913778021774   -3.32689721462842   -2.71496535851340
H        -3.22627173666253   -3.32408984188526   -3.22137543832340
H        -4.76997961449432    2.24795788889786    0.57923962797774
C         0.23589999999208   -1.68139999998130    2.96030000000031
C        -0.97220137778224   -2.14240832379787    3.49849514890167
C         1.29796327492864   -1.48385990801020    3.85085860517081
C        -2.14566325763761   -2.56485210728955    2.65251356622504
C        -1.12045105608537   -2.25017550242579    4.88027388335807
C         1.14453801407079   -1.60111649079190    5.21972718058843
H         2.26883593426467   -1.24530377840518    3.44533200506997
N        -1.90686288253872   -3.78958281487970    1.91792720086812
H        -2.39888016355031   -1.78440870510241    1.93339604072194
H        -3.02011633764725   -2.71552899889616    3.30001327318608
C        -0.08411963549079   -1.96422288362019    5.74657045121333
H        -2.06881427466466   -2.58206866597834    5.28160763502934
H         1.98428488440785   -1.42675818601241    5.87774802711887
C        -2.74696795343733   -4.26613368374505    0.96493834109548
C        -0.89181972539042   -4.67176486759497    2.08515413725745
H        -0.22362180037143   -2.05516939129780    6.81360119912707
C        -2.26183187076878   -5.46167124580607    0.50720772335419
H        -3.62700108263011   -3.72222215781228    0.67902082021900
C        -1.07745960861400   -5.71958050899285    1.22149784308079
H        -0.11229479489350   -4.49802295817299    2.79959966553044
H        -2.70360791523976   -6.08021850370404   -0.25027098082940
H        -0.43922058343341   -6.57525581257176    1.11447054054070
