  110
 energy: -157.919294743310 gnorm: 0.000503524351 xtb: 6.4.0 (f63f532)
N        -0.98237037332456   -1.89156784283353   -0.42748269340892
C        -2.14077553993706   -1.25950857112027   -0.70453003135805
C        -3.03636773976964   -1.78044356374072   -1.64767467146392
C        -2.73487283447921   -2.94729520940225   -2.31023798446805
C        -1.52909785588426   -3.58483992561450   -2.02177765678768
C        -0.69987541009610   -3.01649275520737   -1.08008726105131
H         0.24194242648051   -3.48043287053234   -0.81966107767314
H        -1.25273682855077   -4.50188507989800   -2.51664494252587
H        -3.96872412896345   -1.27976627654948   -1.84976616039381
C        -2.39007014407168   -0.02485748084331    0.02058366358141
N        -1.47265917149633    0.31589837240839    0.95876934802009
C        -1.66702936460228    1.43593091633402    1.65752410882824
C        -2.74361359507006    2.27510529212800    1.46928174245820
C        -3.68440247884930    1.94757254993988    0.49422855175897
C        -3.49765277215502    0.79204957841318   -0.23230926740283
H        -4.20878511453853    0.52454313320235   -0.99614924955438
H        -2.85317399764805    3.16208265813390    2.07228810142019
H        -0.90897996869486    1.65636226080743    2.39247854820221
Ir        0.42150000000001   -0.81650000000080    0.91330000000033
B         0.54960374822894    0.61843946626313   -0.60943628117331
O         0.02527160354984    0.34296837024845   -1.85621513399330
C         0.07155909190240    1.51007734875892   -2.68417381110423
C         0.51548318688283    1.11127322307190   -4.09018911283569
H         1.43428126541298    0.53560913960454   -4.05186375104437
H         0.66028776363366    1.99558386688302   -4.70532704962897
H        -0.25487590210155    0.49091193631211   -4.54223780742691
C        -1.35247850108496    2.07880267438108   -2.75292650148195
H        -1.39843333174648    2.93706251142362   -3.41681601217474
H        -2.01803406309657    1.30360996429510   -3.12775593776003
H        -1.69408440034508    2.36429339081507   -1.76062070947049
C         1.06487980123039    2.44291435228854   -1.91223056515698
O         1.03315882440100    1.90568169345337   -0.58204174974077
C         2.50737476404633    2.30645904761894   -2.41369772447122
H         2.81415587219062    1.26771158258229   -2.32428383080378
H         2.60500987769943    2.65006949779301   -3.43937974498727
H         3.15879882584896    2.90225333548171   -1.77889492911732
C         0.67477465405108    3.91989455060016   -1.88235636769242
H        -0.27079819319680    4.06851054244350   -1.37029571167545
H         1.43946169043644    4.47779083703610   -1.34715207715915
H         0.60427001895291    4.30731476451904   -2.89550984889953
B         1.66232969051596    0.55524208094339    1.89468409079200
O         3.03918660156728    0.55708549493057    1.91138663383984
C         3.52642842181541    1.77848135643751    2.48382916287155
C         4.74573788366838    1.48976230911784    3.35849088048683
H         4.53034017009310    0.71052550556379    4.08194403576351
H         5.56461792158318    1.15033917018717    2.72902093762744
H         5.05608775326163    2.39285192278606    3.87700873255596
C         3.93576755139285    2.67652268271472    1.31063273416724
H         4.31360946381366    3.63550934451893    1.65254128511604
H         4.71274801532648    2.17127791658591    0.74126708317056
H         3.07822323637315    2.81242361798699    0.65706238210500
C         2.27331295893021    2.31912328972620    3.25329567626336
O         1.18962233412022    1.61683656240061    2.62829397461204
C         2.04054571554554    3.82323648441169    3.12301599936898
H         1.84354771475047    4.09123836978217    2.09039390371580
H         1.17474216085596    4.10146935942106    3.71851286274558
H         2.90631090482353    4.37027641208619    3.48643104569990
C         2.26585564601344    1.93127703702778    4.73692005079572
H         2.37355722722836    0.85513917494325    4.83846104417147
H         3.05768420224826    2.43985823635858    5.27815331495368
H         1.30671402610137    2.21118183566729    5.16582450818710
B         2.27819999999647   -1.33090000000326    0.17410000000153
O         3.01367613044070   -2.41407564924915    0.61314099563841
C         4.29013902623763   -2.45065198080408   -0.03723840153214
C         5.30591803819144   -1.88060543156308    0.95824825728677
H         4.98312801686472   -0.88787902015336    1.25867536525240
H         5.31344346357863   -2.51323199610942    1.84235477829465
H         6.30540368749594   -1.84944653673553    0.53563990702922
C         4.65530287599714   -3.89787607535280   -0.36568430384284
H         4.77014592295069   -4.44927249545324    0.56367114042404
H         5.59254276331927   -3.93092014378197   -0.91418466479807
H         3.87706508543045   -4.37900555237383   -0.94847193820518
C         4.06577305537175   -1.52371777994182   -1.28113553107478
O         2.91644382080034   -0.75165071714766   -0.89978825377690
C         5.23194809776518   -0.59043372107896   -1.60018771942096
H         6.13592495853878   -1.16785333871279   -1.77394129878167
H         5.00310258828323   -0.02113763171603   -2.49769708481946
H         5.39326529299778    0.10845935114584   -0.78685083935875
C         3.68188436241657   -2.30019862325207   -2.54867396665266
H         2.82780299753098   -2.94166372395797   -2.34863046629695
H         3.39036002221559   -1.58870514242468   -3.31797384217030
H         4.51527253860030   -2.89298656906791   -2.91327809679657
H        -3.41984954913159   -3.36107486935124   -3.03482865360993
H        -4.53803354964703    2.58251859335886    0.31028569587932
C         0.23589999999862   -1.68139999999115    2.96030000000564
C        -0.99675607262627   -2.02709856328691    3.52869671968541
C         1.34032900392006   -1.61589454653076    3.81972922140101
C        -2.24151498641412   -2.27187668031244    2.72324095282429
C        -1.10020858929990   -2.17583372885838    4.91087516288543
C         1.22724224895807   -1.77221500278591    5.18901595378010
H         2.31665716309165   -1.44764701769693    3.39091805478164
C        -2.26343054950997   -3.67097720993877    2.10521904416042
H        -3.12398795173561   -2.15630891239584    3.35463976591936
H        -2.32245107646589   -1.54752407620153    1.92097718705419
C        -0.01091857277158   -2.03981916514021    5.74778831514448
H        -2.06648696448721   -2.41629435052815    5.33464304559629
H         2.10341861591923   -1.70147961837696    5.81905583217550
C        -3.43264941851773   -3.85543268420878    1.18135806016432
H        -1.33970437612042   -3.84289485462619    1.54765929671674
H        -2.31202395636798   -4.42743104114632    2.89440633182396
H        -0.12223330843923   -2.16222764045531    6.81564082789401
N        -4.34741217906719   -2.89515399220405    1.14623576744957
C        -3.54459619828773   -5.00089733919398    0.39193784660736
C        -5.39092238888673   -3.03194862747952    0.34519720710110
C        -4.63725670852493   -5.13916647779154   -0.44278086683534
H        -2.78194274225829   -5.76304318722739    0.44085729696715
C        -5.59113067012936   -4.13082875794583   -0.47117703183562
H        -6.09821144664640   -2.21189280098536    0.36943911000477
H        -4.74688383285877   -6.01667746995929   -1.06369681725153
H        -6.46039714427948   -4.19721991311684   -1.10653063202460
