   95
 energy: -139.743671164309 gnorm: 0.000555463632 xtb: 6.4.0 (f63f532)
N        -0.93649086475393   -1.98349131162482   -0.39267451446034
C        -2.16876365186069   -1.47522615879526   -0.58515422066879
C        -3.04927193104761   -2.05492238112187   -1.50844618288302
C        -2.64903289302604   -3.14555410841114   -2.24777688682859
C        -1.36522438968666   -3.64893965827201   -2.05069410789473
C        -0.56042323838729   -3.03555211736402   -1.11415949330051
H         0.43907275877212   -3.39897544937872   -0.92118275927163
H        -1.00699949740688   -4.49815473101852   -2.60920413821605
H        -4.04024084093022   -1.65502842078628   -1.64674393135070
C        -2.51311306590380   -0.29735452789296    0.19890265353352
N        -1.58086598985359    0.13808203667752    1.07429727821108
C        -1.85061303636386    1.21662037983589    1.80818790992417
C        -3.03090629741155    1.92372633628012    1.72033253123858
C        -3.99526121809573    1.49749161763932    0.80962225559658
C        -3.72830753604707    0.38234275917163    0.04606278031185
H        -4.45934106927629    0.04311422167839   -0.66890793942363
H        -3.19836417682518    2.78431910249281    2.34755776880630
H        -1.07048965823212    1.51394425869855    2.49252066645672
Ir        0.42150000000010   -0.81649999999985    0.91329999999913
B         0.39297885521998    0.63269873240030   -0.58785116158001
O        -0.17590179905496    0.34568711918520   -1.81232043898208
C        -0.24636565693353    1.53259114399079   -2.61148895356269
C         0.11821175961110    1.19995888875094   -4.05584339772533
H         1.05556599095045    0.65524747524481   -4.09661534304277
H         0.19826517059389    2.11230845366246   -4.64117742020085
H        -0.65929047859458    0.57316470549390   -4.48620286974165
C        -1.69721961319084    2.03149351031301   -2.55748278276137
H        -1.83413399668939    2.90198085102271   -3.19212605286205
H        -2.35335207120470    1.23442704067148   -2.90190785708400
H        -1.97344306925115    2.27773952020917   -1.53392757650812
C         0.75033840279897    2.49187974412117   -1.88302035280426
O         0.78057866929930    1.95353826048064   -0.55304774906824
C         2.17581761912859    2.37857522380981   -2.43612553017600
H         2.49070835292264    1.33855759164736   -2.39639137449985
H         2.23880874224011    2.75956133268796   -3.45123481890861
H         2.84407201296400    2.95329448589653   -1.79960539357803
C         0.32931264848467    3.95937644953882   -1.84652249275039
H        -0.59351392712235    4.09329327622444   -1.29029456534657
H         1.10713633129972    4.54197283050295   -1.35864033119353
H         0.19828650276009    4.33208400041955   -2.85909902861462
B         1.57875587689426    0.64352619308867    1.87744717920843
O         2.87394655907483    1.02572138011196    1.65275552667195
C         3.18014331965630    2.24364975143411    2.34874994778064
C         4.52716553798819    2.09906173600302    3.05859571012608
H         4.54043498712073    1.23498755223310    3.71371671721054
H         5.30448826345880    1.96022068986504    2.31195095723447
H         4.74699430403708    2.99579124740511    3.63047892541535
C         3.29937902660167    3.33801949339349    1.28173789585134
H         3.48208310185030    4.31056634057732    1.72840342818029
H         4.13130296692265    3.08859117677074    0.62720123332657
H         2.39401853572404    3.35762495376881    0.68219918994277
C         1.94652180868425    2.43442361267944    3.30728295516667
O         1.01488456498543    1.44457493238218    2.84588906201871
C         1.27133157248568    3.80491025420257    3.21336021881753
H         0.90339789302471    3.98375879120144    2.20808638260841
H         0.42434758273369    3.82655686893248    3.89558213112448
H         1.96573523797882    4.59064136871793    3.49611237285226
C         2.24570502921622    2.14075863175571    4.78175875435514
H         2.68016202936358    1.15389544165517    4.90143985271517
H         2.92150342923301    2.88386879171924    5.19312626729056
H         1.31091272040923    2.16610247093153    5.33778599865629
B         2.27819999999764   -1.33089999999971    0.17409999999963
O         3.21857574253958   -2.14794158992665    0.75084961184737
C         4.42408172696934   -2.15342525031157   -0.02720909928985
C         5.40439660611823   -1.19919126473246    0.66043256388846
H         4.93724288903275   -0.22391411307557    0.76419877776052
H         5.61198965775721   -1.57616728632831    1.65878220131904
H         6.33508518235588   -1.12269945442868    0.10774638851510
C         5.01149026730278   -3.56297555397299   -0.03924452742296
H         5.30106152459107   -3.82447121826540    0.97482155320077
H         5.88961393939686   -3.59478785872670   -0.67755221065852
H         4.28694044358854   -4.29398841121810   -0.38251497888291
C         3.93157523186258   -1.62009746970119   -1.41649386640767
O         2.70053359128883   -0.95621314206355   -1.08310610283899
C         4.87609198406603   -0.62984701120120   -2.09404050390345
H         5.85082766671652   -1.08533072390447   -2.24425320108968
H         4.46757379511585   -0.35112976731557   -3.06245458131768
H         4.97954372395421    0.26895092566635   -1.49565383970567
C         3.58804739618228   -2.74214008806360   -2.40508269408462
H         2.90450291903180   -3.45152025949585   -1.94678552492817
H         3.09083899296032   -2.30594435451354   -3.26823965621684
H         4.48523477359680   -3.25731313815138   -2.73411998725800
H        -3.31688825357449   -3.59763222550969   -2.96518605620321
H        -4.92931037654291    2.02788315693813    0.70192047138984
C         0.23590000000981   -1.68139999999774    2.96029999999587
C        -1.11465946076033   -1.92505363646928    3.23644807594319
C         1.08428239806630   -1.65598365234077    4.05693388181722
C        -1.60372568454502   -1.98411446633343    4.52904000316049
H        -1.80855869762781   -2.07962088544457    2.42210974303575
C         0.61520818936973   -1.70963003926598    5.35991255120616
I         3.18286629421634   -1.64709408395721    3.83653319149483
C        -0.73950521595784   -1.84588333798501    5.60171839429490
H        -2.65922621068185   -2.14688734609068    4.69634551026224
H         1.30830482702565   -1.66167385665937    6.18592389698774
H        -1.10605661507402   -1.87828863573494    6.61653406570925
