111
 energy: -157.751090296991 gnorm: 0.024357794528 xtb: 6.4.0 (f63f532)
N        -0.96509999999996   -2.11530000000000   -0.24089999999999
C        -2.24700000000003   -1.69840000000000   -0.36220000000001
C        -3.14040000000000   -2.36819999999996   -1.21199999999990
C        -2.70220000000004   -3.47559999999997   -1.93049999999999
C        -1.37780000000012   -3.89880000000002   -1.78760000000000
C        -0.54290000000000   -3.18670000000000   -0.93509999999998
H         0.49810000000002   -3.45630000000000   -0.78940000000000
H        -0.99570000000002   -4.76030000000000   -2.32769999999999
H        -4.16499999999996   -2.02890000000000   -1.31830000000000
C        -2.62130000000001   -0.50949999999997    0.44100000000004
N        -1.62600000000000    0.07329999999999    1.16019999999999
C        -1.89679999999992    1.15239999999996    1.91689999999993
C        -3.17229999999996    1.70329999999995    1.99650000000000
C        -4.20509999999998    1.11740000000006    1.26269999999999
C        -3.92610000000009    0.00250000000005    0.47820000000002
H        -4.71960000000003   -0.46420000000000   -0.09519999999998
H        -3.34630000000000    2.57509999999999    2.62070000000002
H        -1.04449999999995    1.57420000000000    2.43690000000000
Ir        0.42150000000000   -0.81650000000000    0.91330000000000
H         0.87260000000000   -2.23030000000000    1.54050000000000
B         0.50670000000000    0.41559999999998   -0.81540000000000
O         0.19499999999998   -0.04700000000002   -2.09150000000000
C         0.00650000000006    1.10039999999998   -2.95430000000001
C         0.49019999999986    0.74740000000004   -4.35779999999998
H         1.51610000000003    0.37379999999998   -4.33700000000000
H         0.44730000000000    1.62240000000000   -5.01669999999998
H        -0.14740000000001   -0.03389999999998   -4.78429999999998
C        -1.50120000000013    1.39560000000007   -2.96670000000000
H        -1.75369999999997    2.21460000000000   -3.64849999999999
H        -2.03200000000001    0.49450000000000   -3.28930000000000
H        -1.85170000000000    1.65210000000002   -1.96219999999998
C         0.84229999999999    2.20670000000000   -2.22040000000000
O         0.75199999999999    1.78260000000001   -0.83690000000000
C         2.32929999999989    2.18620000000002   -2.59900000000002
H         2.74130000000000    1.18500000000001   -2.45750000000000
H         2.48870000000000    2.51299999999999   -3.63179999999999
H         2.87199999999999    2.86270000000001   -1.93199999999998
C         0.28439999999995    3.62289999999999   -2.33659999999998
H        -0.72649999999994    3.69040000000001   -1.92909999999999
H         0.92129999999998    4.31479999999999   -1.77610000000000
H         0.26430000000000    3.94810000000001   -3.38320000000001
B         1.56300000000001    0.60959999999997    1.84839999999999
O         2.92780000000005    0.55229999999999    2.15020000000003
C         3.36330000000005    1.88659999999998    2.50259999999994
C         4.53140000000000    1.78589999999995    3.47739999999997
H         4.27910000000002    1.16089999999997    4.33689999999999
H         5.39390000000001    1.33790000000000    2.97339999999998
H         4.82390000000002    2.77869999999998    3.83820000000000
C         3.79700000000003    2.56849999999998    1.19669999999997
H         4.20020000000000    3.57089999999999    1.37679999999999
H         4.56740000000000    1.95560000000001    0.72110000000001
H         2.95240000000000    2.63260000000001    0.50539999999997
C         2.05039999999999    2.50090000000001    3.09319999999994
O         1.03750000000002    1.81620000000000    2.31910000000001
C         1.89099999999996    4.00449999999999    2.88650000000002
H         1.87289999999999    4.25440000000000    1.82410000000000
H         0.94940000000000    4.34260000000001    3.33170000000002
H         2.71080000000004    4.55150000000004    3.36629999999999
C         1.82469999999995    2.13200000000001    4.56520000000000
H         1.92610000000002    1.05329999999997    4.71320000000000
H         2.52610000000002    2.65280000000001    5.22539999999995
H         0.80629999999999    2.41580000000000    4.84900000000000
B         2.27820000000002   -1.33090000000001    0.17410000000000
O         2.89460000000002   -2.57740000000000    0.38449999999999
C         4.26930000000004   -2.48199999999998   -0.07209999999991
C         5.10899999999998   -2.05379999999998    1.14009999999996
H         4.76350000000001   -1.08740000000000    1.51749999999999
H         4.98049999999999   -2.79469999999998    1.93590000000001
H         6.17420000000001   -1.99290000000000    0.89300000000004
C         4.71949999999992   -3.84659999999998   -0.58470000000009
H         4.75280000000002   -4.56130000000005    0.24420000000001
H         5.72329999999996   -3.78370000000000   -1.02010000000002
H         4.03499999999994   -4.23600000000000   -1.34169999999999
C         4.16439999999990   -1.36220000000004   -1.16299999999995
O         3.08520000000000   -0.55029999999997   -0.65400000000001
C         5.40719999999993   -0.48870000000004   -1.31550000000014
H         6.27320000000000   -1.09010000000002   -1.61530000000003
H         5.23300000000000    0.26929999999989   -2.08589999999997
H         5.64270000000000    0.02649999999999   -0.38239999999990
C         3.71799999999982   -1.89830000000001   -2.53110000000006
H         2.82530000000009   -2.52160000000006   -2.42740000000002
H         3.46089999999999   -1.05249999999996   -3.17549999999999
H         4.50569999999997   -2.48290000000002   -3.01790000000000
H        -3.38499999999998   -4.00130000000000   -2.59310000000003
H        -5.21399999999999    1.52080000000001    1.29959999999999
C         0.23590000000005   -1.68139999999998    2.96029999999996
C        -1.22412866481777   -1.82756414226563    3.24560466068895
C         1.02121763103548   -2.37172986656165    3.88543652328771
C        -2.62217883589379   -2.09248452154390    2.53690205600279
C        -1.58565303009594   -2.13930496879659    4.56549604802022
C         0.55073084004279   -3.00495355494647    5.03184613542568
H         2.06532253531852   -2.50417790044155    3.63667367283818
C        -3.98011424509208   -1.36777133075626    2.90965591800424
H        -2.53831553262268   -2.14464067120022    1.45974793349501
H        -2.81973352750027   -3.14479424010074    2.78229072021306
C        -0.75569066457251   -2.80591015939463    5.44255907299609
H        -2.63327890661043   -2.06569912847797    4.83644310921239
H         1.17727297384241   -3.69564077644274    5.57994885918351
C        -5.28000610081404   -1.15069667431977    2.09406641764932
H        -4.38120870407075   -1.86541369556762    3.80025516041971
H        -3.72798947593238   -0.35055293344563    3.23010955686407
H        -1.18057795744911   -3.25093991759810    6.33402380821536
N        -5.67633008343369   -1.84863657636464    1.01480182445242
C        -6.13924598696855   -0.10476067632322    2.49541348058511
C        -6.55597563912705   -1.30458197204010    0.16064884085158
C        -7.04094684632712    0.47121922508637    1.60284913813706
H        -6.00149548713270    0.40586744386014    3.43864589211738
C        -7.15827444360416   -0.06625629306041    0.32822960743054
H        -6.70586963954400   -1.83886249219065   -0.77148187391772
H        -7.56433571588595    1.39183847941929    1.84296954614549
H        -7.66981944285453    0.45886425270574   -0.47048552503855
