      -----------------------------------------------------------      
     |                   =====================                   |     
     |                           x T B                           |     
     |                   =====================                   |     
     |                         S. Grimme                         |     
     |          Mulliken Center for Theoretical Chemistry        |     
     |                    University of Bonn                     |     
      -----------------------------------------------------------      

   * xtb version 6.4.0 (f63f532) compiled by 'knkr256@seskscpg008.prim.scp' on 2021-04-09

   xtb is free software: you can redistribute it and/or modify it under
   the terms of the GNU Lesser General Public License as published by
   the Free Software Foundation, either version 3 of the License, or
   (at your option) any later version.
   
   xtb is distributed in the hope that it will be useful,
   but WITHOUT ANY WARRANTY; without even the implied warranty of
   MERCHANTABILITY or FITNESS FOR A PARTICULAR PURPOSE.  See the
   GNU Lesser General Public License for more details.
   
   Cite this work as:
   * C. Bannwarth, E. Caldeweyher, S. Ehlert, A. Hansen, P. Pracht,
     J. Seibert, S. Spicher, S. Grimme, WIREs Comput. Mol. Sci., 2020, 11,
     e01493. DOI: 10.1002/wcms.1493
   
   for GFN2-xTB:
   * C. Bannwarth, S. Ehlert and S. Grimme., J. Chem. Theory Comput., 2019,
     15, 1652-1671. DOI: 10.1021/acs.jctc.8b01176
   for GFN1-xTB:
   * S. Grimme, C. Bannwarth, P. Shushkov, J. Chem. Theory Comput., 2017,
     13, 1989-2009. DOI: 10.1021/acs.jctc.7b00118
   for GFN0-xTB:
   * P. Pracht, E. Caldeweyher, S. Ehlert, S. Grimme, ChemRxiv, 2019, preprint.
     DOI: 10.26434/chemrxiv.8326202.v1
   for GFN-FF:
   * S. Spicher and S. Grimme, Angew. Chem. Int. Ed., 2020, 59, 15665-15673.
     DOI: 10.1002/anie.202004239
   
   for DFT-D4:
   * E. Caldeweyher, C. Bannwarth and S. Grimme, J. Chem. Phys., 2017,
     147, 034112. DOI: 10.1063/1.4993215
   * E. Caldeweyher, S. Ehlert, A. Hansen, H. Neugebauer, S. Spicher,
     C. Bannwarth and S. Grimme, J. Chem. Phys., 2019, 150, 154122.
     DOI: 10.1063/1.5090222
   * E. Caldeweyher, J.-M. Mewes, S. Ehlert and S. Grimme, Phys. Chem. Chem. Phys.
     2020, 22, 8499-8512. DOI: 10.1039/D0CP00502A
   
   for sTDA-xTB:
   * S. Grimme and C. Bannwarth, J. Chem. Phys., 2016, 145, 054103.
     DOI: 10.1063/1.4959605
   
   in the mass-spec context:
   * V. Asgeirsson, C. Bauer and S. Grimme, Chem. Sci., 2017, 8, 4879.
     DOI: 10.1039/c7sc00601b
   * J. Koopman and S. Grimme, ACS Omega 2019, 4, 12, 15120-15133.
     DOI: 10.1021/acsomega.9b02011
   
   for metadynamics refer to:
   * S. Grimme, J. Chem. Theory Comput., 2019, 155, 2847-2862
     DOI: 10.1021/acs.jctc.9b00143
   
   for SPH calculations refer to:
   * S. Spicher and S. Grimme, J. Chem. Theory Comput., 2021, 17, 1701-1714
     DOI: 10.1021/acs.jctc.0c01306
   
   with help from (in alphabetical order)
   P. Atkinson, C. Bannwarth, F. Bohle, G. Brandenburg, E. Caldeweyher
   M. Checinski, S. Dohm, S. Ehlert, S. Ehrlich, I. Gerasimov, J. Koopman
   C. Lavinge, S. Lehtola, F. März, M. Müller, F. Musil, H. Neugebauer
   J. Pisarek, P. Pracht, J. Seibert, P. Shushkov, S. Spicher, M. Stahn
   T. Strunk, J. Stückrath, T. Rose, and J. Unsleber
   
 * started run on 2021/10/08 at 07:24:20.011     

           -------------------------------------------------
          |                Calculation Setup                |
           -------------------------------------------------

          program call               : xtb xtbopt.xyz --sp --alpb thf -P 6
          hostname                   : seskscpg010.prim.scp
          coordinate file            : xtbopt.xyz
          omp threads                :                     6
          number of atoms            :                   111
          number of electrons        :                   290
          charge                     :                     0
          spin                       :                   0.0
          first test random number   :      0.88746679315095

   ID    Z sym.   atoms
    1    7 N      1, 11, 103
    2    6 C      2-6, 10, 12-15, 23, 24, 28, 32, 34, 38, 44, 45, 49, 53, 55,
                  59, 65, 66, 70, 74, 76, 80, 86-91, 93, 96, 99, 104-106, 108
    3    1 H      7-9, 16-18, 20, 25-27, 29-31, 35-37, 39-41, 46-48, 50-52,
                  56-58, 60-62, 67-69, 71-73, 77-79, 81-85, 92, 94, 95, 97,
                  98, 100-102, 107, 109-111
    4   77 Ir     19
    5    5 B      21, 42, 63
    6    8 O      22, 33, 43, 54, 64, 75

molecular fragmentation (1/2 indicates fragments):
111111111111111111111111111111111111111111111111111111111111111111111111
111111111111122222222222222222222222222
# atoms in fragment 1/2:    85    26
 fragment masses (1/2) :      730.32      182.24
CMA distance (Bohr)    :   9.026
constraining FC (au)   :  0.0500

           -------------------------------------------------
          |                 G F N 2 - x T B                 |
           -------------------------------------------------

        Reference                      10.1021/acs.jctc.8b01176
      * Hamiltonian:
        H0-scaling (s, p, d)           1.850000    2.230000    2.230000
        zeta-weighting                 0.500000
      * Dispersion:
        s8                             2.700000
        a1                             0.520000
        a2                             5.000000
        s9                             5.000000
      * Repulsion:
        kExp                           1.500000    1.000000
        rExp                           1.000000
      * Coulomb:
        alpha                          2.000000
        third order                    shell-resolved
        anisotropic                    true
        a3                             3.000000
        a5                             4.000000
        cn-shift                       1.200000
        cn-exp                         4.000000
        max-rad                        5.000000

      * Solvation model:               ALPB
        Solvent                        thf
        Parameter file                 internal GFN2-xTB/ALPB
        Dielectric constant                7.6000E+00
        Reference state                gsolv [1 M gas/solution]
        Free energy shift                  5.3248E-03 Eh       3.3414E+00 kcal/mol
        Temperature                        2.9815E+02 K
        Density                            8.8300E-01 kg/L
        Solvent mass                       7.2106E+01 g/mol
        Interaction kernel             P16
        Born radius scaling (c1)           1.7311E+00
        Born radii integrator          GBOBC
        Born offset                        0.0000E+00 a0       0.0000E+00 AA
        H-bond correction              true
        Ion screening                  false
        Surface tension                    1.0000E-05 Eh       1.5569E+01 dyn/cm
        Grid points                               230 per atom
q/qsh data taken from xtbrestart
CAMM data taken from xtbrestart

          ...................................................
          :                      SETUP                      :
          :.................................................:
          :  # basis functions                 279          :
          :  # atomic orbitals                 278          :
          :  # shells                          166          :
          :  # electrons                       290          :
          :  max. iterations                   250          :
          :  Hamiltonian                  GFN2-xTB          :
          :  restarted?                       true          :
          :  GBSA solvation                   true          :
          :  PC potential                    false          :
          :  electronic temp.          300.0000000     K    :
          :  accuracy                    1.0000000          :
          :  -> integral cutoff          0.2500000E+02      :
          :  -> integral neglect         0.1000000E-07      :
          :  -> SCF convergence          0.1000000E-05 Eh   :
          :  -> wf. convergence          0.1000000E-03 e    :
          :  Broyden damping             0.4000000          :
          ...................................................

 iter      E             dE          RMSdq      gap      omega  full diag
   1   -160.0662891 -0.160066E+03  0.437E-05    0.93       0.0  T
   2   -160.0662891  0.702016E-10  0.509E-05    0.93     186.5  T
   3   -160.0662891 -0.914042E-10  0.300E-05    0.93     316.3  T

   *** convergence criteria satisfied after 3 iterations ***

         #    Occupation            Energy/Eh            Energy/eV
      -------------------------------------------------------------
         1        2.0000           -0.6746229             -18.3574
       ...           ...                  ...                  ...
       139        2.0000           -0.3645188              -9.9191
       140        2.0000           -0.3463471              -9.4246
       141        2.0000           -0.3292745              -8.9600
       142        2.0000           -0.3218090              -8.7569
       143        2.0000           -0.3161490              -8.6029
       144        2.0000           -0.3097710              -8.4293
       145        2.0000           -0.3047549              -8.2928 (HOMO)
       146                         -0.2706293              -7.3642 (LUMO)
       147                         -0.2447252              -6.6593
       148                         -0.2439585              -6.6384
       149                         -0.2404968              -6.5443
       150                         -0.2326732              -6.3314
       ...                                ...                  ...
       278                          4.0486833             110.1703
      -------------------------------------------------------------
                  HL-Gap            0.0341256 Eh            0.9286 eV
             Fermi-level           -0.2876897 Eh           -7.8284 eV

 SCC (total)                   0 d,  0 h,  0 min,  0.121 sec
 SCC setup                      ...        0 min,  0.002 sec (  2.004%)
 Dispersion                     ...        0 min,  0.003 sec (  2.284%)
 classical contributions        ...        0 min,  0.000 sec (  0.142%)
 integral evaluation            ...        0 min,  0.032 sec ( 26.621%)
 iterations                     ...        0 min,  0.037 sec ( 30.055%)
 molecular gradient             ...        0 min,  0.046 sec ( 38.265%)
 printout                       ...        0 min,  0.001 sec (  0.572%)

         :::::::::::::::::::::::::::::::::::::::::::::::::::::
         ::                     SUMMARY                     ::
         :::::::::::::::::::::::::::::::::::::::::::::::::::::
         :: total energy            -157.919288318260 Eh    ::
         :: total w/o Gsasa/hb      -157.878011363328 Eh    ::
         :: gradient norm              0.028268501640 Eh/a0 ::
         :: HOMO-LUMO gap              0.928604999203 eV    ::
         ::.................................................::
         :: SCC energy              -160.066289126858 Eh    ::
         :: -> isotropic ES            0.242825099671 Eh    ::
         :: -> anisotropic ES          0.013746519534 Eh    ::
         :: -> anisotropic XC          0.063795899064 Eh    ::
         :: -> dispersion             -0.164565636156 Eh    ::
         :: -> Gsolv                  -0.050277157809 Eh    ::
         ::    -> Gelec               -0.009000202876 Eh    ::
         ::    -> Gsasa               -0.044162631762 Eh    ::
         ::    -> Ghb                 -0.002439138615 Eh    ::
         ::    -> Gshift               0.005324815444 Eh    ::
         :: repulsion energy           2.136305573879 Eh    ::
         :: add. restraining           0.000000000000 Eh    ::
         :: total charge               0.000000000162 e     ::
         :::::::::::::::::::::::::::::::::::::::::::::::::::::

           -------------------------------------------------
          |                Property Printout                |
           -------------------------------------------------

    * Orbital Energies and Occupations

         #    Occupation            Energy/Eh            Energy/eV
      -------------------------------------------------------------
         1        2.0000           -0.6746229             -18.3574
       ...           ...                  ...                  ...
       133        2.0000           -0.3867947             -10.5252
       134        2.0000           -0.3848598             -10.4726
       135        2.0000           -0.3829911             -10.4217
       136        2.0000           -0.3821869             -10.3998
       137        2.0000           -0.3770745             -10.2607
       138        2.0000           -0.3749635             -10.2033
       139        2.0000           -0.3645188              -9.9191
       140        2.0000           -0.3463471              -9.4246
       141        2.0000           -0.3292745              -8.9600
       142        2.0000           -0.3218090              -8.7569
       143        2.0000           -0.3161490              -8.6029
       144        2.0000           -0.3097710              -8.4293
       145        2.0000           -0.3047549              -8.2928 (HOMO)
       146                         -0.2706293              -7.3642 (LUMO)
       147                         -0.2447252              -6.6593
       148                         -0.2439585              -6.6384
       149                         -0.2404968              -6.5443
       150                         -0.2326732              -6.3314
       151                         -0.2074628              -5.6454
       152                         -0.2001609              -5.4467
       153                         -0.1991988              -5.4205
       154                         -0.1755085              -4.7758
       155                         -0.1479406              -4.0257
       156                         -0.1241495              -3.3783
       ...                                ...                  ...
       278                          4.0486833             110.1703
      -------------------------------------------------------------
                  HL-Gap            0.0341256 Eh            0.9286 eV
             Fermi-level           -0.2876897 Eh           -7.8284 eV

     #   Z          covCN         q      C6AA      α(0)
     1   7 N        2.543    -0.129    23.833     7.250
     2   6 C        2.954     0.079    26.246     8.403
     3   6 C        2.918    -0.039    28.965     8.825
     4   6 C        2.924    -0.022    28.550     8.762
     5   6 C        2.915    -0.045    29.124     8.849
     6   6 C        2.891     0.047    26.939     8.510
     7   1 H        0.926     0.053     2.288     2.366
     8   1 H        0.926     0.053     2.285     2.364
     9   1 H        0.926     0.038     2.474     2.460
    10   6 C        2.953     0.071    26.420     8.431
    11   7 N        2.560    -0.127    23.777     7.242
    12   6 C        2.888     0.038    27.147     8.542
    13   6 C        2.915    -0.048    29.183     8.859
    14   6 C        2.922    -0.029    28.729     8.790
    15   6 C        2.919    -0.043    29.069     8.841
    16   1 H        0.926     0.033     2.539     2.492
    17   1 H        0.926     0.045     2.379     2.412
    18   1 H        0.926     0.075     2.028     2.227
    19  77 Ir       5.935    -0.146   387.006    36.379
    20   1 H        0.977     0.092     1.859     2.131
    21   5 B        2.625     0.410    15.968     6.756
    22   8 O        1.638    -0.408    21.013     6.188
    23   6 C        3.833     0.130    18.447     6.111
    24   6 C        3.755    -0.120    22.848     6.816
    25   1 H        0.925     0.052     2.297     2.370
    26   1 H        0.925     0.044     2.393     2.419
    27   1 H        0.925     0.051     2.302     2.373
    28   6 C        3.755    -0.110    22.653     6.787
    29   1 H        0.925     0.047     2.357     2.401
    30   1 H        0.925     0.042     2.420     2.433
    31   1 H        0.925     0.028     2.621     2.532
    32   6 C        3.838     0.131    18.433     6.108
    33   8 O        1.637    -0.408    21.018     6.188
    34   6 C        3.755    -0.123    22.907     6.824
    35   1 H        0.925     0.056     2.247     2.344
    36   1 H        0.925     0.045     2.383     2.414
    37   1 H        0.925     0.049     2.338     2.391
    38   6 C        3.755    -0.119    22.828     6.813
    39   1 H        0.925     0.044     2.398     2.422
    40   1 H        0.925     0.053     2.286     2.365
    41   1 H        0.925     0.045     2.378     2.411
    42   5 B        2.626     0.405    16.022     6.767
    43   8 O        1.637    -0.386    20.587     6.125
    44   6 C        3.836     0.129    18.467     6.114
    45   6 C        3.755    -0.126    22.970     6.834
    46   1 H        0.925     0.056     2.247     2.344
    47   1 H        0.925     0.055     2.255     2.348
    48   1 H        0.925     0.049     2.329     2.386
    49   6 C        3.755    -0.121    22.867     6.818
    50   1 H        0.925     0.048     2.343     2.394
    51   1 H        0.925     0.046     2.368     2.406
    52   1 H        0.925     0.050     2.317     2.380
    53   6 C        3.833     0.127    18.491     6.118
    54   8 O        1.637    -0.380    20.483     6.109
    55   6 C        3.755    -0.124    22.942     6.830
    56   1 H        0.925     0.053     2.285     2.364
    57   1 H        0.925     0.055     2.260     2.351
    58   1 H        0.925     0.048     2.341     2.393
    59   6 C        3.755    -0.125    22.957     6.832
    60   1 H        0.925     0.047     2.364     2.404
    61   1 H        0.925     0.052     2.289     2.366
    62   1 H        0.925     0.052     2.297     2.370
    63   5 B        2.627     0.408    15.983     6.757
    64   8 O        1.638    -0.378    20.432     6.101
    65   6 C        3.833     0.125    18.524     6.124
    66   6 C        3.755    -0.130    23.052     6.846
    67   1 H        0.925     0.057     2.233     2.337
    68   1 H        0.925     0.055     2.257     2.350
    69   1 H        0.925     0.050     2.315     2.379
    70   6 C        3.755    -0.130    23.051     6.846
    71   1 H        0.925     0.062     2.176     2.307
    72   1 H        0.925     0.050     2.314     2.379
    73   1 H        0.925     0.053     2.282     2.362
    74   6 C        3.831     0.128    18.479     6.116
    75   8 O        1.637    -0.382    20.505     6.112
    76   6 C        3.755    -0.123    22.923     6.827
    77   1 H        0.925     0.051     2.304     2.374
    78   1 H        0.925     0.052     2.290     2.367
    79   1 H        0.925     0.055     2.256     2.349
    80   6 C        3.755    -0.121    22.866     6.818
    81   1 H        0.925     0.041     2.434     2.440
    82   1 H        0.925     0.047     2.362     2.403
    83   1 H        0.925     0.055     2.261     2.351
    84   1 H        0.926     0.048     2.340     2.392
    85   1 H        0.926     0.037     2.485     2.465
    86   6 C        2.827    -0.032    28.783     8.791
    87   6 C        2.973     0.011    27.756     8.642
    88   6 C        2.926    -0.043    29.060     8.840
    89   6 C        3.810    -0.066    21.759     6.640
    90   6 C        2.928    -0.046    29.134     8.852
    91   6 C        2.917    -0.040    28.999     8.831
    92   1 H        0.926     0.041     2.434     2.440
    93   6 C        3.812    -0.063    21.697     6.630
    94   1 H        0.925     0.059     2.212     2.326
    95   1 H        0.924     0.047     2.361     2.403
    96   6 C        2.916    -0.044    29.102     8.846
    97   1 H        0.925     0.028     2.616     2.529
    98   1 H        0.925     0.026     2.642     2.542
    99   6 C        2.954     0.099    25.806     8.332
   100   1 H        0.924     0.055     2.255     2.348
   101   1 H        0.924     0.048     2.347     2.396
   102   1 H        0.926     0.027     2.622     2.532
   103   7 N        1.840    -0.256    27.520     7.774
   104   6 C        2.919    -0.053    29.320     8.880
   105   6 C        2.907     0.055    26.761     8.482
   106   6 C        2.927    -0.017    28.442     8.746
   107   1 H        0.926     0.037     2.494     2.470
   108   6 C        2.915    -0.050    29.252     8.869
   109   1 H        0.925     0.035     2.520     2.482
   110   1 H        0.926     0.042     2.427     2.436
   111   1 H        0.926     0.041     2.434     2.440

 Mol. C6AA /au·bohr⁶  :     132755.705684
 Mol. C8AA /au·bohr⁸  :    3499272.045758
 Mol. α(0) /au        :        566.953470


Wiberg/Mayer (AO) data.
largest (>0.10) Wiberg bond orders for each atom

 ---------------------------------------------------------------------------
     #   Z sym  total        # sym  WBO       # sym  WBO       # sym  WBO
 ---------------------------------------------------------------------------
     1   7 N    3.393 --     6 C    1.386     2 C    1.304    19 Ir   0.431
     2   6 C    3.979 --     3 C    1.341     1 N    1.304    10 C    1.103
     3   6 C    3.988 --     4 C    1.491     2 C    1.341     9 H    0.962
                             6 C    0.106
     4   6 C    3.984 --     3 C    1.491     5 C    1.375    84 H    0.969
     5   6 C    3.977 --     6 C    1.465     4 C    1.375     8 H    0.969
     6   6 C    3.978 --     5 C    1.465     1 N    1.386     7 H    0.958
                             3 C    0.106
     7   1 H    0.997 --     6 C    0.958
     8   1 H    0.996 --     5 C    0.969
     9   1 H    0.998 --     3 C    0.962
    10   6 C    3.978 --    15 C    1.349    11 N    1.285     2 C    1.103
    11   7 N    3.403 --    12 C    1.359    10 C    1.285    19 Ir   0.443
    12   6 C    3.974 --    13 C    1.474    11 N    1.359    18 H    0.948
                            15 C    0.104
    13   6 C    3.983 --    12 C    1.474    14 C    1.367    17 H    0.969
    14   6 C    3.978 --    15 C    1.482    13 C    1.367    85 H    0.970
    15   6 C    3.990 --    14 C    1.482    10 C    1.349    16 H    0.962
                            12 C    0.104
    16   1 H    0.998 --    15 C    0.962
    17   1 H    0.997 --    13 C    0.969
    18   1 H    0.994 --    12 C    0.948
    19  77 Ir   5.171 --    42 B    0.862    63 B    0.850    21 B    0.674
                            86 C    0.600    20 H    0.560    11 N    0.443
                             1 N    0.431
    20   1 H    0.989 --    19 Ir   0.560    86 C    0.323
    21   5 B    3.280 --    33 O    1.106    22 O    1.097    19 Ir   0.674
    22   8 O    2.193 --    21 B    1.097    23 C    0.942
    23   6 C    3.942 --    24 C    0.996    28 C    0.991    22 O    0.942
                            32 C    0.940
    24   6 C    3.994 --    23 C    0.996    26 H    0.984    27 H    0.983
                            25 H    0.982
    25   1 H    0.997 --    24 C    0.982
    26   1 H    0.997 --    24 C    0.984
    27   1 H    0.997 --    24 C    0.983
    28   6 C    3.996 --    23 C    0.991    29 H    0.984    30 H    0.984
                            31 H    0.983
    29   1 H    0.997 --    28 C    0.984
    30   1 H    0.998 --    28 C    0.984
    31   1 H    0.999 --    28 C    0.983
    32   6 C    3.940 --    38 C    0.997    34 C    0.991    23 C    0.940
                            33 O    0.939
    33   8 O    2.195 --    21 B    1.106    32 C    0.939
    34   6 C    3.993 --    32 C    0.991    36 H    0.983    37 H    0.981
                            35 H    0.979
    35   1 H    0.997 --    34 C    0.979
    36   1 H    0.997 --    34 C    0.983
    37   1 H    0.997 --    34 C    0.981
    38   6 C    3.995 --    32 C    0.997    41 H    0.984    39 H    0.983
                            40 H    0.983
    39   1 H    0.998 --    38 C    0.983
    40   1 H    0.997 --    38 C    0.983
    41   1 H    0.997 --    38 C    0.984
    42   5 B    3.336 --    54 O    1.112    43 O    1.111    19 Ir   0.862
    43   8 O    2.222 --    42 B    1.111    44 C    0.936
    44   6 C    3.937 --    45 C    0.997    49 C    0.991    53 C    0.939
                            43 O    0.936
    45   6 C    3.993 --    44 C    0.997    48 H    0.983    46 H    0.982
                            47 H    0.982
    46   1 H    0.997 --    45 C    0.982
    47   1 H    0.997 --    45 C    0.982
    48   1 H    0.996 --    45 C    0.983
    49   6 C    3.994 --    44 C    0.991    50 H    0.984    51 H    0.983
                            52 H    0.980
    50   1 H    0.997 --    49 C    0.984
    51   1 H    0.998 --    49 C    0.983
    52   1 H    0.997 --    49 C    0.980
    53   6 C    3.938 --    55 C    0.996    59 C    0.992    44 C    0.939
                            54 O    0.934
    54   8 O    2.229 --    42 B    1.112    53 C    0.934
    55   6 C    3.993 --    53 C    0.996    58 H    0.983    57 H    0.983
                            56 H    0.983
    56   1 H    0.997 --    55 C    0.983
    57   1 H    0.997 --    55 C    0.983
    58   1 H    0.996 --    55 C    0.983
    59   6 C    3.994 --    53 C    0.992    61 H    0.983    62 H    0.983
                            60 H    0.981
    60   1 H    0.998 --    59 C    0.981
    61   1 H    0.996 --    59 C    0.983
    62   1 H    0.997 --    59 C    0.983
    63   5 B    3.360 --    75 O    1.119    64 O    1.110    19 Ir   0.850
    64   8 O    2.228 --    63 B    1.110    65 C    0.937
    65   6 C    3.937 --    70 C    0.997    66 C    0.991    74 C    0.939
                            64 O    0.937
    66   6 C    3.992 --    65 C    0.991    69 H    0.983    68 H    0.982
                            67 H    0.980
    67   1 H    0.997 --    66 C    0.980
    68   1 H    0.997 --    66 C    0.982
    69   1 H    0.996 --    66 C    0.983
    70   6 C    3.992 --    65 C    0.997    72 H    0.983    73 H    0.982
                            71 H    0.982
    71   1 H    0.996 --    70 C    0.982
    72   1 H    0.996 --    70 C    0.983
    73   1 H    0.997 --    70 C    0.982
    74   6 C    3.934 --    76 C    0.996    80 C    0.991    65 C    0.939
                            75 O    0.934
    75   8 O    2.233 --    63 B    1.119    74 C    0.934
    76   6 C    3.993 --    74 C    0.996    77 H    0.983    78 H    0.982
                            79 H    0.982
    77   1 H    0.996 --    76 C    0.983
    78   1 H    0.997 --    76 C    0.982
    79   1 H    0.997 --    76 C    0.982
    80   6 C    3.995 --    74 C    0.991    81 H    0.984    83 H    0.983
                            82 H    0.983
    81   1 H    0.998 --    80 C    0.984
    82   1 H    0.998 --    80 C    0.983
    83   1 H    0.996 --    80 C    0.983
    84   1 H    0.997 --     4 C    0.969
    85   1 H    0.998 --    14 C    0.970
    86   6 C    3.944 --    87 C    1.374    88 C    1.367    19 Ir   0.600
                            20 H    0.323
    87   6 C    3.985 --    90 C    1.393    86 C    1.374    89 C    1.006
                            91 C    0.101
    88   6 C    3.989 --    91 C    1.461    86 C    1.367    92 H    0.958
                            90 C    0.106
    89   6 C    3.993 --    87 C    1.006    93 C    0.992    95 H    0.967
                            94 H    0.957
    90   6 C    3.986 --    96 C    1.455    87 C    1.393    97 H    0.966
                            88 C    0.106
    91   6 C    3.987 --    88 C    1.461    96 C    1.411    98 H    0.970
                            87 C    0.101
    92   1 H    0.997 --    88 C    0.958
    93   6 C    3.996 --    99 C    1.013    89 C    0.992   101 H    0.954
                           100 H    0.952
    94   1 H    0.996 --    89 C    0.957
    95   1 H    0.997 --    89 C    0.967
    96   6 C    3.987 --    90 C    1.455    91 C    1.411   102 H    0.970
    97   1 H    0.996 --    90 C    0.966
    98   1 H    0.998 --    91 C    0.970
    99   6 C    3.975 --   103 N    1.418   104 C    1.373    93 C    1.013
                           108 C    0.110
   100   1 H    0.997 --    93 C    0.952
   101   1 H    0.998 --    93 C    0.954
   102   1 H    0.997 --    96 C    0.970
   103   7 N    3.055 --   105 C    1.425    99 C    1.418
   104   6 C    3.990 --   106 C    1.470    99 C    1.373   107 H    0.969
                           105 C    0.117
   105   6 C    3.982 --   108 C    1.442   103 N    1.425   109 H    0.963
                           104 C    0.117
   106   6 C    3.990 --   104 C    1.470   108 C    1.419   110 H    0.969
   107   1 H    0.999 --   104 C    0.969
   108   6 C    3.991 --   105 C    1.442   106 C    1.419   111 H    0.970
                            99 C    0.110
   109   1 H    0.999 --   105 C    0.963
   110   1 H    0.998 --   106 C    0.969
   111   1 H    0.998 --   108 C    0.970
 ---------------------------------------------------------------------------

Topologies differ in total number of bonds
Writing topology from bond orders to xtbtopo.mol

molecular dipole:
                 x           y           z       tot (Debye)
 q only:        0.617       0.482      -0.626
   full:       -0.777       1.172      -1.336       4.931
molecular quadrupole (traceless):
                xx          xy          yy          xz          yz          zz
 q only:       12.108      -3.730      -4.753       2.450      12.332      -7.355
  q+dip:       19.885      -5.770     -10.675       3.503      18.320      -9.211
   full:       18.521      -3.568      -9.545      -0.241      15.341      -8.976


           -------------------------------------------------
          | TOTAL ENERGY             -157.919288318260 Eh   |
          | GRADIENT NORM               0.028268501640 Eh/α |
          | HOMO-LUMO GAP               0.928604999203 eV   |
           -------------------------------------------------

------------------------------------------------------------------------
 * finished run on 2021/10/08 at 07:24:20.178     
------------------------------------------------------------------------
 total:
 * wall-time:     0 d,  0 h,  0 min,  0.167 sec
 *  cpu-time:     0 d,  0 h,  0 min,  0.978 sec
 * ratio c/w:     5.862 speedup
 SCF:
 * wall-time:     0 d,  0 h,  0 min,  0.123 sec
 *  cpu-time:     0 d,  0 h,  0 min,  0.735 sec
 * ratio c/w:     5.976 speedup

