111
 energy: -157.758521214417 gnorm: 0.125376626411 xtb: 6.4.0 (f63f532)
N        -0.96509999999996   -2.11530000000000   -0.24089999999999
C        -2.24700000000003   -1.69840000000000   -0.36220000000001
C        -3.14040000000000   -2.36819999999996   -1.21199999999990
C        -2.70220000000004   -3.47559999999997   -1.93049999999999
C        -1.37780000000012   -3.89880000000002   -1.78760000000000
C        -0.54290000000000   -3.18670000000000   -0.93509999999998
H         0.49810000000002   -3.45630000000000   -0.78940000000000
H        -0.99570000000002   -4.76030000000000   -2.32769999999999
H        -4.16499999999996   -2.02890000000000   -1.31830000000000
C        -2.62130000000001   -0.50949999999997    0.44100000000004
N        -1.62600000000000    0.07329999999999    1.16019999999999
C        -1.89679999999992    1.15239999999996    1.91689999999993
C        -3.17229999999996    1.70329999999995    1.99650000000000
C        -4.20509999999998    1.11740000000006    1.26269999999999
C        -3.92610000000009    0.00250000000005    0.47820000000002
H        -4.71960000000003   -0.46420000000000   -0.09519999999998
H        -3.34630000000000    2.57509999999999    2.62070000000002
H        -1.04449999999995    1.57420000000000    2.43690000000000
Ir        0.42150000000000   -0.81650000000000    0.91330000000000
H         0.87260000000000   -2.23030000000000    1.54050000000000
B         0.50670000000000    0.41559999999998   -0.81540000000000
O         0.19499999999998   -0.04700000000002   -2.09150000000000
C         0.00650000000006    1.10039999999998   -2.95430000000001
C         0.49019999999986    0.74740000000004   -4.35779999999998
H         1.51610000000003    0.37379999999998   -4.33700000000000
H         0.44730000000000    1.62240000000000   -5.01669999999998
H        -0.14740000000001   -0.03389999999998   -4.78429999999998
C        -1.50120000000013    1.39560000000007   -2.96670000000000
H        -1.75369999999997    2.21460000000000   -3.64849999999999
H        -2.03200000000001    0.49450000000000   -3.28930000000000
H        -1.85170000000000    1.65210000000002   -1.96219999999998
C         0.84229999999999    2.20670000000000   -2.22040000000000
O         0.75199999999999    1.78260000000001   -0.83690000000000
C         2.32929999999989    2.18620000000002   -2.59900000000002
H         2.74130000000000    1.18500000000001   -2.45750000000000
H         2.48870000000000    2.51299999999999   -3.63179999999999
H         2.87199999999999    2.86270000000001   -1.93199999999998
C         0.28439999999995    3.62289999999999   -2.33659999999998
H        -0.72649999999994    3.69040000000001   -1.92909999999999
H         0.92129999999998    4.31479999999999   -1.77610000000000
H         0.26430000000000    3.94810000000001   -3.38320000000001
B         1.56300000000001    0.60959999999997    1.84839999999999
O         2.92780000000005    0.55229999999999    2.15020000000003
C         3.36330000000005    1.88659999999998    2.50259999999994
C         4.53140000000000    1.78589999999995    3.47739999999997
H         4.27910000000002    1.16089999999997    4.33689999999999
H         5.39390000000001    1.33790000000000    2.97339999999998
H         4.82390000000002    2.77869999999998    3.83820000000000
C         3.79700000000003    2.56849999999998    1.19669999999997
H         4.20020000000000    3.57089999999999    1.37679999999999
H         4.56740000000000    1.95560000000001    0.72110000000001
H         2.95240000000000    2.63260000000001    0.50539999999997
C         2.05039999999999    2.50090000000001    3.09319999999994
O         1.03750000000002    1.81620000000000    2.31910000000001
C         1.89099999999996    4.00449999999999    2.88650000000002
H         1.87289999999999    4.25440000000000    1.82410000000000
H         0.94940000000000    4.34260000000001    3.33170000000002
H         2.71080000000004    4.55150000000004    3.36629999999999
C         1.82469999999995    2.13200000000001    4.56520000000000
H         1.92610000000002    1.05329999999997    4.71320000000000
H         2.52610000000002    2.65280000000001    5.22539999999995
H         0.80629999999999    2.41580000000000    4.84900000000000
B         2.27820000000002   -1.33090000000001    0.17410000000000
O         2.89460000000002   -2.57740000000000    0.38449999999999
C         4.26930000000004   -2.48199999999998   -0.07209999999991
C         5.10899999999998   -2.05379999999998    1.14009999999996
H         4.76350000000001   -1.08740000000000    1.51749999999999
H         4.98049999999999   -2.79469999999998    1.93590000000001
H         6.17420000000001   -1.99290000000000    0.89300000000004
C         4.71949999999992   -3.84659999999998   -0.58470000000009
H         4.75280000000002   -4.56130000000005    0.24420000000001
H         5.72329999999996   -3.78370000000000   -1.02010000000002
H         4.03499999999994   -4.23600000000000   -1.34169999999999
C         4.16439999999990   -1.36220000000004   -1.16299999999995
O         3.08520000000000   -0.55029999999997   -0.65400000000001
C         5.40719999999993   -0.48870000000004   -1.31550000000014
H         6.27320000000000   -1.09010000000002   -1.61530000000003
H         5.23300000000000    0.26929999999989   -2.08589999999997
H         5.64270000000000    0.02649999999999   -0.38239999999990
C         3.71799999999982   -1.89830000000001   -2.53110000000006
H         2.82530000000009   -2.52160000000006   -2.42740000000002
H         3.46089999999999   -1.05249999999996   -3.17549999999999
H         4.50569999999997   -2.48290000000002   -3.01790000000000
H        -3.38499999999998   -4.00130000000000   -2.59310000000003
H        -5.21399999999999    1.52080000000001    1.29959999999999
C         0.23590000000005   -1.68139999999998    2.96029999999996
C        -1.22412866481777   -1.82756414226563    3.24560466068895
C         1.02121763103548   -2.37172986656165    3.88543652328771
C        -2.62217883589379   -2.09248452154390    2.53690205600279
C        -1.58565303009594   -2.13930496879659    4.56549604802022
C         0.55073084004279   -3.00495355494647    5.03184613542568
H         2.06532253531852   -2.50417790044155    3.63667367283818
C        -3.98011424509208   -1.36777133075626    2.90965591800424
H        -2.53831553262268   -2.14464067120022    1.45974793349501
H        -2.81973352750027   -3.14479424010074    2.78229072021306
C        -0.75569066457251   -2.80591015939463    5.44255907299609
H        -2.63327890661043   -2.06569912847797    4.83644310921239
H         1.17727297384241   -3.69564077644274    5.57994885918351
C        -5.28000610081404   -1.15069667431977    2.09406641764932
H        -4.38120870407075   -1.86541369556762    3.80025516041971
H        -3.72798947593238   -0.35055293344563    3.23010955686407
H        -1.18057795744911   -3.25093991759810    6.33402380821536
N        -5.67633008343369   -1.84863657636464    1.01480182445242
C        -6.13924598696855   -0.10476067632322    2.49541348058511
C        -6.55597563912705   -1.30458197204010    0.16064884085158
C        -7.04094684632712    0.47121922508637    1.60284913813706
H        -6.00149548713270    0.40586744386014    3.43864589211738
C        -7.15827444360416   -0.06625629306041    0.32822960743054
H        -6.70586963954400   -1.83886249219065   -0.77148187391772
H        -7.56433571588595    1.39183847941929    1.84296954614549
H        -7.66981944285453    0.45886425270574   -0.47048552503855
111
 energy: -157.792350014080 gnorm: 0.095259634541 xtb: 6.4.0 (f63f532)
N        -0.95282724461556   -2.08708019080487   -0.27715537524556
C        -2.22349739746876   -1.65315418360058   -0.41209953004280
C        -3.12657032167537   -2.34515269540856   -1.23049815388716
C        -2.70137521484812   -3.46317368803185   -1.92840498596727
C        -1.38243142141672   -3.88654042309876   -1.78661390879034
C        -0.55117903626564   -3.17100399894998   -0.94592481599478
H         0.48218219164128   -3.45333988477917   -0.79144185274243
H        -1.00609232500926   -4.74894924725958   -2.32007411009606
H        -4.15106151907946   -2.01922553043537   -1.32193284556763
C        -2.57663183451413   -0.43968705042734    0.36434479738114
N        -1.59730206420358    0.11119907370011    1.11747750294728
C        -1.87873291449294    1.15815157897793    1.89549896197842
C        -3.13884620581728    1.72591997159597    1.97042110269207
C        -4.14226918393361    1.20079076775251    1.17234368920335
C        -3.86076435736403    0.09997518222270    0.37797541807789
H        -4.64552059033101   -0.36513422164468   -0.18911186312658
H        -3.32783448914914    2.57019339235874    2.61977700183477
H        -1.04003922502889    1.56144898029857    2.44118006510715
Ir        0.42150000000000   -0.81650000000000    0.91330000000000
H         0.87260000000000   -2.23030000000000    1.54050000000000
B         0.49746302467764    0.41931825807726   -0.79883455859382
O         0.18593134114945   -0.03579100950512   -2.07459836527416
C         0.01526848996790    1.09938884610389   -2.94946701525635
C         0.49519725126075    0.75042513422411   -4.35511373695917
H         1.51494876633944    0.37459869088275   -4.33240121210124
H         0.45145338783949    1.62472249894387   -5.00567170871814
H        -0.14193646152044   -0.02696725362236   -4.77657103537114
C        -1.49129477448632    1.39978423171760   -2.97054349481654
H        -1.73597940166186    2.21409255738135   -3.65152852127594
H        -2.02184171721902    0.50251536719740   -3.29061082855276
H        -1.83907007055143    1.65239011134433   -1.96813873872039
C         0.84034064763746    2.20680291127772   -2.21543871802655
O         0.75884415340356    1.77683851413875   -0.83964714653644
C         2.32589153217327    2.18921741125865   -2.59780823148656
H         2.73152565168626    1.18973397308760   -2.45053035960142
H         2.48345793203408    2.51316531429532   -3.62620208999271
H         2.86769362651211    2.86144786145861   -1.93269327415025
C         0.28830402942402    3.62428932074880   -2.33788511877175
H        -0.71659631163369    3.69124280075787   -1.92796277822160
H         0.92530690142992    4.30809681498659   -1.77740837317764
H         0.27140521320988    3.94245073862691   -3.38069302267754
B         1.56420304933027    0.60905728258329    1.86665709173864
O         2.92527130196585    0.55914871714330    2.14568401074860
C         3.36317916761634    1.88286830524997    2.51112161467921
C         4.53223165562132    1.78462828232949    3.48391189139178
H         4.27760270245191    1.15786938446244    4.33494884181390
H         5.38754822063455    1.33741999057887    2.97848903272710
H         4.81789883165938    2.77426893696168    3.84035100473742
C         3.79954775101450    2.56819811099338    1.20942859227960
H         4.20194901843931    3.56441965596117    1.39054656943603
H         4.56416768288181    1.95604789361490    0.73318756610143
H         2.95407715885530    2.62359580831435    0.52423947389723
C         2.05249442861739    2.50165665363530    3.09252121401023
O         1.04235057846827    1.80820424084222    2.33412446918208
C         1.89390118530833    4.00479078409399    2.89124951560809
H         1.87251449906682    4.24921110102688    1.83263755111438
H         0.95488926019600    4.33569837354088    3.33431322251897
H         2.71231085479993    4.54279616187626    3.36964848671585
C         1.82624666215807    2.13464481724927    4.56503731595652
H         1.92673351534466    1.05855036222487    4.70491703998723
H         2.52525947251135    2.65358785594250    5.21907221117761
H         0.81097799039095    2.41418288083717    4.84729792820804
B         2.27820000000002   -1.33090000000001    0.17410000000000
O         2.89927352561696   -2.56415693028311    0.38895651009013
C         4.26613417202270   -2.48519159168494   -0.07338221133115
C         5.10815816293570   -2.06033973527266    1.13657332411015
H         4.75460457081063   -1.09980843630963    1.51051200961723
H         4.97597724412137   -2.79613188685648    1.92961042094562
H         6.16733287986139   -2.00058330677027    0.88925159624884
C         4.71974408479669   -3.84880455509846   -0.58384730551314
H         4.74766309508127   -4.55592134185343    0.24449770782820
H         5.71845960081439   -3.78053936246791   -1.01509836954546
H         4.03499592762481   -4.23475594923375   -1.33486800891536
C         4.16751737176160   -1.36255220705273   -1.15590572813409
O         3.07886802194659   -0.56284069181463   -0.65726406826406
C         5.41142586031401   -0.49330490856875   -1.31184750819951
H         6.26910708622549   -1.09694120043825   -1.60853668664719
H         5.23407639869591    0.26027920414970   -2.07858187490511
H         5.63961048492883    0.01975156928964   -0.38155639521896
C         3.72619006373407   -1.90000715472465   -2.52529967001928
H         2.83320632190314   -2.51534880320158   -2.41887334406330
H         3.46900823893253   -1.05744635395220   -3.16673783658446
H         4.51298878205119   -2.47895411096239   -3.00686151938298
H        -3.38185645641545   -3.99061092627474   -2.58436791501909
H        -5.14473883862680    1.59282815113215    1.22783747479520
C         0.23590000000005   -1.68139999999998    2.96029999999996
C        -1.23092618521264   -1.82696730278202    3.27371813562700
C         1.03614096675533   -2.35451052640366    3.88721932207349
C        -2.62638891895460   -2.12231177221155    2.53054278039817
C        -1.57216882461485   -2.14231277341593    4.59327895525603
C         0.57681579329608   -2.98435198081416    5.04007553009924
H         2.07972906479705   -2.47823926858368    3.63598848415907
C        -3.97794737200540   -1.37958893985064    2.94096943007355
H        -2.53422077923227   -2.15176385676414    1.45919102208193
H        -2.80758378192842   -3.17305604651845    2.78648475031958
C        -0.72707219902329   -2.79598084754688    5.45807805546054
H        -2.61577020730761   -2.07423534600058    4.87058534483133
H         1.21197412650184   -3.66647546008104    5.58637527377690
C        -5.27413969555176   -1.16904517555857    2.10291008476753
H        -4.37037314412829   -1.88079466157097    3.83101447478065
H        -3.71847420570756   -0.36328050493877    3.25290731030716
H        -1.14015079395935   -3.24111587239825    6.35270214408391
N        -5.66108821254807   -1.87046709566426    1.02815057378047
C        -6.13721704423367   -0.12881376891404    2.51707433910756
C        -6.54825100014574   -1.33847533437123    0.18138282153046
C        -7.04143129858522    0.43892248475818    1.62563535199184
H        -5.99174912275252    0.38022512535069    3.45902955061697
C        -7.16147026309596   -0.10507416192431    0.35350058412141
H        -6.70724026770274   -1.88166723750448   -0.74379330168391
H        -7.56669642832713    1.35626143176134    1.86817611849578
H        -7.68125510596129    0.41233188914573   -0.44384455630688
111
 energy: -157.813960823725 gnorm: 0.086504383455 xtb: 6.4.0 (f63f532)
N        -0.93525408374014   -2.05188250256369   -0.31648242556515
C        -2.19719435414956   -1.60307720738214   -0.46508318296104
C        -3.11075265078154   -2.30960770169817   -1.25814853298529
C        -2.69993120735171   -3.44065117343428   -1.93627472333163
C        -1.38413833680749   -3.86873098898797   -1.79395552697359
C        -0.55239332653546   -3.14867870598253   -0.96357682523812
H         0.47195595598135   -3.45097821679927   -0.79466770383554
H        -1.01782209343435   -4.74068695944300   -2.31277577860192
H        -4.13701629905426   -1.99420653160547   -1.33300496176054
C        -2.53859654410325   -0.38508501557332    0.29959339454200
N        -1.56858709683654    0.13599117989441    1.08174667119509
C        -1.85445645258587    1.17049947592357    1.86185348669752
C        -3.10622295049611    1.75128565729498    1.93382684892164
C        -4.10135226489472    1.25204639036438    1.11068881383192
C        -3.81224894567498    0.17428136623457    0.29334598612019
H        -4.58781557770669   -0.26762651832201   -0.29994219067009
H        -3.30546543200258    2.56823539785841    2.61193056894316
H        -1.03128915263426    1.54389227870394    2.45230955690181
Ir        0.42150000000000   -0.81650000000000    0.91330000000000
H         0.87260000000000   -2.23030000000000    1.54050000000000
B         0.50532675569958    0.42607606679626   -0.78391180077718
O         0.17790041148986   -0.02587325009001   -2.05585723056143
C         0.02257858907009    1.09864976780448   -2.93854353211187
C         0.50385981362803    0.75092900890415   -4.34495072114983
H         1.52009935737732    0.37307422181335   -4.32389336139744
H         0.45889256239322    1.62817008613336   -4.98575517402164
H        -0.13560223660282   -0.02100169653540   -4.76559424187323
C        -1.48280571632165    1.40665274338046   -2.97372123397994
H        -1.71456766421771    2.21859012954503   -3.65634912348578
H        -2.01222450033410    0.51163147828950   -3.29463823398574
H        -1.82968515139407    1.65795501411235   -1.97301033669730
C         0.84261969272317    2.20664286852706   -2.20623970419708
O         0.76833933486456    1.77737274418686   -0.83694698795751
C         2.32690574584929    2.19229682434737   -2.59410874432800
H         2.72622499974342    1.19287747107149   -2.44176188642838
H         2.47853873636340    2.51303482536211   -3.62083332991075
H         2.86700169712585    2.86376563358878   -1.93092420798295
C         0.29244236950879    3.62471518924994   -2.33497929415655
H        -0.70931042803001    3.69490193462109   -1.92454905572430
H         0.93250237615519    4.30304716647567   -1.77695788349388
H         0.28017727404444    3.93297782623054   -3.37702097333293
B         1.56770776909607    0.60887868620606    1.88221028750725
O         2.92332155172949    0.56287467907342    2.14527138732722
C         3.36259348866950    1.87755268752959    2.52026854492855
C         4.53069669097171    1.77976243855539    3.49471759964282
H         4.27538031504807    1.15074926941492    4.34027853965517
H         5.38173294254972    1.33504651539804    2.98639802232357
H         4.80946914502139    2.76851317776899    3.84725801995352
C         3.80372801764309    2.56802013490442    1.22332725111190
H         4.20469314793008    3.55992315230934    1.40871023082002
H         4.56532714525230    1.95546001599970    0.74805822355653
H         2.95630712155568    2.61679323554110    0.54332447227048
C         2.05310654344834    2.49814827560412    3.09607202068096
O         1.04624202564155    1.79838246400809    2.34989649346369
C         1.89696663213470    4.00165688615374    2.89590797184209
H         1.87311254656875    4.24437663286388    1.83957758892656
H         0.96026711541722    4.32762345059371    3.33989616697650
H         2.71595574353363    4.53096667376576    3.37430509940316
C         1.82937155502489    2.13607334148395    4.57079716887321
H         1.92940088766807    1.06098036033541    4.70171723364708
H         2.52790531427593    2.65528514095349    5.21878736166929
H         0.81513796084334    2.41314012650820    4.84915354576449
B         2.27820000000002   -1.33090000000001    0.17410000000000
O         2.90046101096024   -2.55349284300750    0.39632880717760
C         4.25947029960495   -2.48716417744634   -0.07066794481749
C         5.10741514846461   -2.06759986832674    1.13649557189369
H         4.74687496703654   -1.11076103187891    1.50703332865820
H         4.97153376553071   -2.80215169220736    1.92617036827524
H         6.16201341452078   -2.00930459862595    0.88587302776301
C         4.71431088517200   -3.85077473050122   -0.58190657830152
H         4.73994164880382   -4.55194582792688    0.24737450843167
H         5.71042724045323   -3.77570139913251   -1.00872655479733
H         4.03084089431955   -4.23599839416946   -1.33032403684547
C         4.16696607474968   -1.36401791476048   -1.14912222938825
O         3.07184795345164   -0.57251687974577   -0.66055067920161
C         5.41348534298280   -0.49848567055965   -1.30291169874969
H         6.26327947872053   -1.10798825179456   -1.59650090046416
H         5.23633629222523    0.25076430632847   -2.06960582039668
H         5.63805872216837    0.01367496832726   -0.37441570926008
C         3.73531477404212   -1.90307352653298   -2.52153517777008
H         2.84182435150721   -2.51284919409032   -2.41180869872676
H         3.48055326388070   -1.06089609990340   -3.16052638916586
H         4.52461055446882   -2.47852030977767   -2.99464906232315
H        -3.38578682594875   -3.97961293515666   -2.57262321279842
H        -5.09586687967964    1.65873606657322    1.14770133698986
C         0.23590000000004   -1.68139999999998    2.96029999999997
C        -1.22833203994285   -1.83909256009910    3.29623438758001
C         1.05874605538008   -2.32698830949736    3.88655323691617
C        -2.61615998325059   -2.13168068888952    2.52438844218727
C        -1.55252734460037   -2.15043609567876    4.61681984174891
C         0.61913999557275   -2.94877739484921    5.05240457789492
H         2.10236862718087   -2.43512379610901    3.62989172760488
C        -3.95537727805558   -1.38320072027952    2.96091681855426
H        -2.51906437515445   -2.13182640440793    1.45668265369464
H        -2.79015829017956   -3.18276489965114    2.77765722126996
C        -0.68260484397072   -2.77619112185873    5.47872015039081
H        -2.59322228955985   -2.09088985023810    4.90382661112247
H         1.27010907820950   -3.61453826271646    5.59976773223203
C        -5.23357595837343   -1.16640450577779    2.10355473649121
H        -4.34412443854009   -1.89213452239399    3.84741364922246
H        -3.68980584254239   -0.37038118824819    3.26953720729270
H        -1.07675659701087   -3.21912668679743    6.38255394700810
N        -5.58343293297780   -1.85948641294326    1.01935855611860
C        -6.08778845010077   -0.12269589193603    2.52108388299537
C        -6.50806355235114   -1.36342108350998    0.19653128926660
C        -7.01343857464783    0.41841137486000    1.64056019585450
H        -5.96326897700875    0.35651819150408    3.48105032738009
C        -7.15783826168675   -0.14998506724554    0.38157525881603
H        -6.69569905804025   -1.93257511453189   -0.70906902254140
H        -7.57009180880961    1.31224415278687    1.89813452015713
H        -7.71308724225370    0.34216363545142   -0.40726307863424
111
 energy: -157.831951137875 gnorm: 0.081732634569 xtb: 6.4.0 (f63f532)
N        -0.91759764144971   -2.02175113598556   -0.34671026189244
C        -2.17265615763146   -1.55719123201899   -0.51151963249491
C        -3.09505226101994   -2.26838012959336   -1.28973155289969
C        -2.69859725535755   -3.41463340949494   -1.94897833027003
C        -1.38440760809081   -3.85111946581430   -1.80480230619579
C        -0.54835556921602   -3.12948073547009   -0.98018484578814
H         0.46926191670789   -3.44872786896208   -0.80139400576989
H        -1.02895046714092   -4.73597698443144   -2.30809714401160
H        -4.12164864513101   -1.95351570264769   -1.35486037276191
C        -2.50420937191924   -0.33671159058774    0.23974287810030
N        -1.54118510965033    0.15342650897758    1.05449397839845
C        -1.83113898009100    1.17718264819796    1.84553732133527
C        -3.07483984288941    1.77824947736829    1.89856594962197
C        -4.06171689529888    1.31396294740350    1.03618261220965
C        -3.76764232877816    0.25214332196805    0.20199432760492
H        -4.53717602108096   -0.16292401935956   -0.42397899675352
H        -3.27886682968012    2.57508062715101    2.59722741863578
H        -1.01922714517633    1.53256149864668    2.46204726365763
Ir        0.42150000000000   -0.81650000000000    0.91330000000000
H         0.87260000000000   -2.23030000000000    1.54050000000000
B         0.51042694766223    0.43753599055345   -0.77024213189602
O         0.17311814508271   -0.01788073116690   -2.03914795840859
C         0.02876168717336    1.09931929654677   -2.92567074954634
C         0.51477802040091    0.75003987850684   -4.33118243592939
H         1.52980599857056    0.36951523595385   -4.31173046050811
H         0.47073720196585    1.63152001275694   -4.96565069213478
H        -0.12809489958850   -0.01735864499440   -4.75435046620701
C        -1.47535974128168    1.41493870862386   -2.97557008664092
H        -1.69345824784916    2.22686070429313   -3.66165174258710
H        -2.00450555606272    0.52137565916245   -3.30017582987626
H        -1.82667557817400    1.66827801015283   -1.97731178279138
C         0.84825702726577    2.20810725203588   -2.19477502716902
O         0.78078936359972    1.78406517925075   -0.82824476058746
C         2.33144688917847    2.19470686793856   -2.58862571675780
H         2.72784545973332    1.19484533510908   -2.43310554040866
H         2.47672682423024    2.51245613167976   -3.61642052624468
H         2.87119576694965    2.86840016364475   -1.92806348007180
C         0.29827933622080    3.62641574719671   -2.32933730332516
H        -0.70319357636946    3.70081914530985   -1.91962416999259
H         0.94159205303225    4.30397459936699   -1.77478995677718
H         0.28881232307277    3.92571349951486   -3.37347360799488
B         1.57057937226206    0.60475730792312    1.89705635296158
O         2.92388753084284    0.56116259201002    2.14747366181998
C         3.36278587963853    1.87078733850150    2.52958309543773
C         4.52893338285665    1.77215524993420    3.50738349465499
H         4.27348559284932    1.14080426414272    4.35074605745827
H         5.38020221305218    1.33063214560256    2.99728422544279
H         4.80250912352838    2.76184755251837    3.85960634184048
C         3.80840821266642    2.56690846231050    1.23683293348313
H         4.20788827299955    3.55741771665087    1.42808336202589
H         4.57067813158674    1.95479092360022    0.76263465516051
H         2.96025502822959    2.61428528152996    0.55817581538047
C         2.05362574103216    2.49249894403779    3.10337703551879
O         1.04830774988850    1.78878522592558    2.36532310918662
C         1.89921738652514    3.99657657764849    2.90106493466501
H         1.87392175615312    4.23989864962434    1.84507416114358
H         0.96390311833592    4.32196720083305    3.34760803456382
H         2.72071854618950    4.52086312830140    3.37948967007909
C         1.83295398879948    2.13583899293382    4.58048168352036
H         1.93322277667983    1.06068470881291    4.70750353373761
H         2.53255427636663    2.65698453166329    5.22433472201300
H         0.81840056219968    2.41262608332016    4.85640401408122
B         2.27820000000003   -1.33090000000001    0.17410000000000
O         2.89903321873735   -2.54851820756138    0.40519691768422
C         4.25243730408457   -2.48922876070628   -0.06562023998576
C         5.10617721804056   -2.07431137796931    1.13962731847931
H         4.74351403344767   -1.11851594320055    1.50987779922242
H         4.96869988223314   -2.81079124329499    1.92676471864810
H         6.15898738648920   -2.01750954076666    0.88491160425294
C         4.70580818562534   -3.85374307283684   -0.57862365406676
H         4.73118161272301   -4.55277505739455    0.25200274437789
H         5.70212074558388   -3.77394302937260   -1.00291021339815
H         4.02366371192696   -4.23947339350462   -1.32758175892742
C         4.16528677791121   -1.36625293802920   -1.14372336653847
O         3.06653853892904   -0.57735182863498   -0.66469506088554
C         5.41459029705634   -0.50317968088459   -1.29164032425617
H         6.26035970122906   -1.11933651431318   -1.58152772159978
H         5.24149299944491    0.24389523845390   -2.06085271087739
H         5.63781873997597    0.00905482019643   -0.36318938871183
C         3.74393424857584   -1.90669005478991   -2.51921341767787
H         2.84970282721735   -2.51472286459283   -2.41018510985202
H         3.49384609948707   -1.06377894713506   -3.15863815281480
H         4.53766364308536   -2.48160227211261   -2.98370799570311
H        -3.39374699120628   -3.96596728815407   -2.56426503173515
H        -5.05160264518536    1.73760450133033    1.05406197104081
C         0.23590000000004   -1.68139999999999    2.96029999999998
C        -1.21730879735311   -1.85137075406185    3.31105562648841
C         1.08508612585538   -2.29385792465067    3.88353636639637
C        -2.59271538523490   -2.12968633494458    2.52543115694863
C        -1.52823469484453   -2.16225576881856    4.63271384228623
C         0.66993750976009   -2.90395438421544    5.06571004801533
H         2.12916985507493   -2.38117680827616    3.61950325166309
C        -3.91719612704659   -1.38181580967687    2.97317073944580
H        -2.49113495029273   -2.09354542968992    1.45780550186922
H        -2.76839425134165   -3.18612863567843    2.75383436635208
C        -0.63120223864937   -2.75310555129425    5.49779720041001
H        -2.56692702959626   -2.11756136959918    4.93149393818562
H         1.34248271644734   -3.54370633038272    5.61982343281940
C        -5.17853407496998   -1.15927750407738    2.10659049771606
H        -4.30826784097093   -1.89907201784648    3.85428321856843
H        -3.64581415560983   -0.37433735536637    3.28992541895017
H        -1.00206674892879   -3.18738888125242    6.41678736698901
N        -5.49735091485657   -1.84954112961009    1.01812194399381
C        -6.04004192926562   -0.12654170031433    2.53158356430823
C        -6.46001976703384   -1.39218672079542    0.21586041514125
C        -6.98806626843029    0.38726323807677    1.66175775101042
H        -5.91805143371288    0.33977195258146    3.49693551668168
C        -7.14437769620781   -0.20014751160466    0.41285251312474
H        -6.65946245245677   -1.97863015646566   -0.67608513244521
H        -7.56256686675588    1.26761582074705    1.92473547707308