15
 energy: -35.319695857857 gnorm: 0.036726312505 xtb: 6.4.1 (1a32961)
C         0.99295000000000    1.20037000000000   -0.01084000000000
C         2.39598000000000    1.21091000000000   -0.00628000000000
C         3.15831000000000    2.51279000000000   -0.01436000000000
F         2.35501000000000    3.61295000000000   -0.03611000000000
F         3.95656000000000    2.65628000000000    1.07924000000000
F         3.97825000000000    2.62946000000000   -1.09511000000000
C         3.08531000000000   -0.01362000000000    0.00647000000000
C         2.38526000000000   -1.22244000000000    0.01058000000000
C         0.99069000000000   -1.22176000000000    0.00321000000000
C         0.30095000000000   -0.01135000000000   -0.00658000000000
Br       -1.58940000000000   -0.00736000000000   -0.01227000000000
H         0.44196000000000    2.13905000000000   -0.01915000000000
H         4.17458000000000   -0.02782000000000    0.01275000000000
H         2.92658000000000   -2.16563000000000    0.01937000000000
H         0.45273000000000   -2.16639000000000    0.00572000000000
15
 energy: -35.321693010321 gnorm: 0.014993781759 xtb: 6.4.1 (1a32961)
C         0.99487396121609    1.20222101539209   -0.01111753090023
C         2.38560028867994    1.19878929907228   -0.00632642164043
C         3.14786773899994    2.49147887338305   -0.01390682154480
F         2.35434937451157    3.58544225750462   -0.03550800729357
F         3.94439465780798    2.63207044728156    1.07177379465947
F         3.96638964064847    2.60555349275864   -1.08627667256918
C         3.08363801549623   -0.00664246597029    0.00544313015625
C         2.38808109411684   -1.20574093774028    0.01014471084518
C         1.00174856698965   -1.21213376966499    0.00431754803420
C         0.31563921205069   -0.00661331698836   -0.00548260626958
Br       -1.58095047280745    0.00202539364770   -0.01390182784824
H         0.44855422085999    2.13590683938674   -0.01956751075475
H         4.16516595882621   -0.00806708934268    0.01092047486689
H         2.92824542108335   -2.14015344814834    0.01906512259130
H         0.46212232152051   -2.14869659057175    0.00706261766749
15
 energy: -35.321960130585 gnorm: 0.004180382820 xtb: 6.4.1 (1a32961)
C         0.99198552327871    1.20631355638410   -0.01132652431784
C         2.37883014908653    1.19504383505836   -0.00630793970772
C         3.14453279965888    2.48370519291820   -0.01360828989645
F         2.36187859344274    3.57597345235957   -0.03518372954466
F         3.94043921726045    2.61738448005910    1.06747609916211
F         3.96307325428392    2.59110925430617   -1.08060273671836
C         3.08457741365385   -0.00195451215123    0.00500302537971
C         2.39046638850184   -1.19920399482540    0.01040771828369
C         1.00600589699529   -1.20920879021294    0.00462410197237
C         0.32119753753076   -0.00484426408092   -0.00607182161837
Br       -1.58209283383780   -0.00205641023027   -0.01409185288267
H         0.44758201615413    2.13769107699538   -0.02010872803021
H         4.16292913563549    0.00757082389542    0.00916272157989
H         2.93068495589156   -2.13090708041019    0.01887619395974
H         0.46362995246364   -2.14117662006536    0.00839176237878
15
 energy: -35.321982398943 gnorm: 0.001657476448 xtb: 6.4.1 (1a32961)
C         0.98933015396525    1.20790997492452   -0.01148634825934
C         2.37650599373596    1.19562621200485   -0.00669693868348
C         3.14516429685193    2.48405785601783   -0.01356957254620
F         2.36708195751266    3.57711612203265   -0.03513325650232
F         3.94115794252502    2.61328856279893    1.06724755056685
F         3.96443444024116    2.58739266134704   -1.07960858396100
C         3.08457501580269   -0.00063188547770    0.00443520499914
C         2.39130039790093   -1.19893936136776    0.01010223226430
C         1.00647347122052   -1.20948833315007    0.00511231547041
C         0.32141022773602   -0.00518361143630   -0.00549696968360
Br       -1.58437312758327   -0.00624558990985   -0.01469176144407
H         0.44481722198730    2.13899852772570   -0.02015770668967
H         4.16278150030252    0.01306436481853    0.00856701617233
H         2.93206779269760   -2.13081679734735    0.01890903261991
H         0.46299271510372   -2.14070870298101    0.00910778567674
15
 energy: -35.321986534686 gnorm: 0.000844556481 xtb: 6.4.1 (1a32961)
C         0.98653832137946    1.20903668101207   -0.01174533886737
C         2.37427383690635    1.19677022406824   -0.00691108954636
C         3.14632051054214    2.48532905253388   -0.01351728681965
F         2.37246412069626    3.57954819188207   -0.03550039750403
F         3.94230000027712    2.60988984550944    1.06816728762485
F         3.96701893625753    2.58404866318172   -1.07915964817341
C         3.08375252300997    0.00050988410170    0.00428441591807
C         2.39198175516916   -1.19912596537113    0.01035727580874
C         1.00673973460684   -1.20989922568947    0.00495671776174
C         0.32124650365053   -0.00582155347247   -0.00633499165338
Br       -1.58661000175556   -0.01078812111976   -0.01359945686192
H         0.44166828293629    2.14004058757101   -0.02053678258000
H         4.16213647706958    0.01805174152683    0.00770716525934
H         2.93346704320335   -2.13124622596334    0.01888389066364
H         0.46242195605097   -2.14090377977079    0.00958823896976
15
 energy: -35.321987481976 gnorm: 0.000210236712 xtb: 6.4.1 (1a32961)
C         0.98719179723093    1.20862047656997   -0.01163240196877
C         2.37474680070420    1.19658612270307   -0.00715046321629
C         3.14603380992511    2.48509394947915   -0.01357666008218
F         2.37125853461349    3.57908637830353   -0.03568048511829
F         3.94186752906511    2.61061258126392    1.06838253138898
F         3.96687178836129    2.58476323340568   -1.07928170609447
C         3.08365221912268    0.00025543743809    0.00392436657050
C         2.39182794641115   -1.19907123169796    0.00985266959657
C         1.00669670603281   -1.20973746595151    0.00533350511788
C         0.32127408236103   -0.00570460603801   -0.00521202157070
Br       -1.58597299260978   -0.00968531599251   -0.01441723021114
H         0.44235560271343    2.13966575721337   -0.02026548795172
H         4.16203314316752    0.01689541129797    0.00788123120385
H         2.93318050782184   -2.13101977910298    0.01882831712225
H         0.46270252507920   -2.14092094889176    0.00965383521353
