106
 energy: -152.870849250894 gnorm: 0.078768427403 xtb: 6.4.0 (f63f532)
N        -0.96510000000000   -2.11530000000000   -0.24090000000000
C        -2.24700000000001   -1.69839999999999   -0.36220000000000
C        -3.14040000000000   -2.36819999999999   -1.21200000000001
C        -2.70220000000000   -3.47560000000001   -1.93050000000001
C        -1.37780000000000   -3.89880000000001   -1.78759999999999
C        -0.54290000000000   -3.18670000000000   -0.93510000000001
H         0.49810000000000   -3.45630000000000   -0.78940000000000
H        -0.99570000000000   -4.76030000000000   -2.32770000000000
H        -4.16500000000000   -2.02890000000000   -1.31830000000000
C        -2.62130000000000   -0.50950000000000    0.44099999999999
N        -1.62600000000000    0.07330000000000    1.16020000000000
C        -1.89680000000000    1.15240000000000    1.91690000000000
C        -3.17230000000001    1.70330000000000    1.99650000000000
C        -4.20510000000000    1.11740000000000    1.26270000000000
C        -3.92610000000000    0.00250000000001    0.47819999999999
H        -4.71960000000000   -0.46420000000000   -0.09520000000001
H        -3.34630000000000    2.57510000000000    2.62070000000000
H        -1.04450000000000    1.57420000000000    2.43690000000000
Ir        0.42150000000000   -0.81650000000000    0.91330000000000
H         0.87260000000000   -2.23030000000000    1.54050000000000
B         0.50670000000000    0.41560000000000   -0.81540000000000
O         0.19500000000000   -0.04700000000000   -2.09150000000000
C         0.00650000000000    1.10040000000000   -2.95430000000000
C         0.49020000000000    0.74739999999999   -4.35780000000000
H         1.51610000000001    0.37380000000000   -4.33700000000000
H         0.44730000000001    1.62240000000000   -5.01670000000000
H        -0.14740000000000   -0.03390000000000   -4.78430000000000
C        -1.50120000000000    1.39560000000001   -2.96670000000000
H        -1.75370000000000    2.21460000000001   -3.64850000000000
H        -2.03199999999999    0.49450000000000   -3.28930000000000
H        -1.85170000000000    1.65210000000000   -1.96220000000000
C         0.84230000000001    2.20670000000000   -2.22040000000000
O         0.75200000000000    1.78260000000000   -0.83690000000000
C         2.32930000000000    2.18620000000000   -2.59900000000000
H         2.74130000000000    1.18500000000000   -2.45750000000000
H         2.48870000000000    2.51300000000000   -3.63180000000000
H         2.87200000000000    2.86270000000000   -1.93200000000000
C         0.28440000000000    3.62290000000000   -2.33659999999999
H        -0.72650000000000    3.69040000000000   -1.92910000000000
H         0.92130000000000    4.31480000000000   -1.77610000000000
H         0.26430000000000    3.94810000000000   -3.38320000000001
B         1.56300000000000    0.60960000000000    1.84840000000000
O         2.92780000000000    0.55230000000000    2.15020000000000
C         3.36330000000000    1.88660000000000    2.50260000000001
C         4.53140000000000    1.78589999999999    3.47740000000000
H         4.27909999999999    1.16089999999999    4.33690000000001
H         5.39390000000000    1.33790000000000    2.97340000000001
H         4.82390000000000    2.77869999999999    3.83820000000000
C         3.79700000000000    2.56849999999999    1.19670000000000
H         4.20020000000000    3.57090000000000    1.37680000000000
H         4.56740000000000    1.95560000000000    0.72110000000000
H         2.95240000000000    2.63260000000000    0.50540000000001
C         2.05039999999999    2.50090000000000    3.09320000000000
O         1.03750000000000    1.81620000000000    2.31910000000000
C         1.89100000000001    4.00450000000000    2.88650000000000
H         1.87290000000000    4.25440000000000    1.82410000000000
H         0.94940000000000    4.34260000000000    3.33170000000000
H         2.71080000000000    4.55150000000000    3.36630000000000
C         1.82470000000000    2.13199999999999    4.56520000000000
H         1.92610000000000    1.05330000000000    4.71320000000000
H         2.52610000000001    2.65280000000001    5.22540000000000
H         0.80630000000000    2.41580000000000    4.84900000000000
B         2.27820000000000   -1.33089999999999    0.17410000000000
O         2.89460000000000   -2.57740000000000    0.38450000000000
C         4.26929999999999   -2.48200000000001   -0.07210000000000
C         5.10900000000000   -2.05379999999999    1.14010000000000
H         4.76350000000000   -1.08740000000000    1.51750000000000
H         4.98050000000000   -2.79470000000000    1.93590000000000
H         6.17420000000000   -1.99290000000001    0.89300000000000
C         4.71950000000000   -3.84660000000000   -0.58470000000000
H         4.75279999999999   -4.56130000000000    0.24420000000000
H         5.72330000000000   -3.78370000000001   -1.02010000000000
H         4.03500000000000   -4.23600000000000   -1.34169999999999
C         4.16440000000000   -1.36220000000000   -1.16299999999999
O         3.08520000000001   -0.55030000000000   -0.65400000000000
C         5.40720000000000   -0.48870000000000   -1.31550000000001
H         6.27320000000000   -1.09010000000001   -1.61529999999999
H         5.23300000000000    0.26930000000001   -2.08590000000000
H         5.64270000000000    0.02650000000000   -0.38240000000000
C         3.71800000000000   -1.89830000000000   -2.53110000000000
H         2.82530000000000   -2.52159999999999   -2.42740000000000
H         3.46090000000000   -1.05249999999999   -3.17549999999999
H         4.50570000000001   -2.48289999999999   -3.01789999999999
H        -3.38500000000000   -4.00129999999999   -2.59310000000000
H        -5.21400000000000    1.52080000000000    1.29960000000001
C         0.23589999999998   -1.68140000000001    2.96030000000001
N        -0.76504545973516   -2.43931364767260    3.52609836269774
C         1.35601520372586   -1.90547567205226    3.75440817012541
C        -2.16949996267463   -2.45417681939059    3.19421638442898
C        -0.30820019244418   -3.05842639654923    4.65481492671620
C         1.01474103164762   -2.74548597623216    4.82846257348395
H         2.33389479388630   -1.50553076541907    3.54702647860724
C        -2.63046781639868   -3.53255325556528    2.24558144870247
H        -2.73403229922734   -2.57336735671336    4.12664751170903
H        -2.43972568083623   -1.48345374087667    2.76907391790044
H        -0.96001436584121   -3.66974847644113    5.25563585237873
H         1.66586285216695   -3.10892867109312    5.60548912049556
N        -1.73611703937356   -4.36462193134328    1.71276909294208
C        -3.99273648243801   -3.62637882125501    1.96345161071652
C        -2.17235890154913   -5.30136416521699    0.87374444461943
C        -4.43489810464152   -4.60407121240851    1.08798857975338
H        -4.68619261753120   -2.93929297466190    2.42900293154369
C        -3.50141352344657   -5.46186535313230    0.52357783310759
H        -1.40100295763924   -5.94453530419130    0.46741936011992
H        -5.48719079826781   -4.69509167140897    0.85137957048792
H        -3.80011809665223   -6.23236516889352   -0.17234340545331
106
 energy: -152.877765969102 gnorm: 0.050056561607 xtb: 6.4.0 (f63f532)
N        -0.95967624013328   -2.09202942505698   -0.25853083139955
C        -2.23892331422917   -1.68371273154966   -0.37358980687088
C        -3.13365382852314   -2.35817873630877   -1.21255617436327
C        -2.70166436559144   -3.45726064295200   -1.92881063986980
C        -1.38017180474251   -3.87251919563202   -1.79092524895256
C        -0.55146428811368   -3.15929837879252   -0.94742013205504
H         0.47973763167368   -3.44399505493184   -0.79038002042842
H        -1.00508329573375   -4.73582186346476   -2.32208262632308
H        -4.15594402510792   -2.02667870110729   -1.31275363983045
C        -2.61089835723115   -0.50393114613517    0.41929695591422
N        -1.61658520889798    0.08064590060170    1.12749182498404
C        -1.89601110772093    1.14609228692589    1.88433937254875
C        -3.16517094474766    1.68842667675932    1.98166891342935
C        -4.19774046597586    1.10300801391330    1.25574958282336
C        -3.91644813449508   -0.00083160687635    0.47112245783585
H        -4.70892957227706   -0.46791089203491   -0.09290501886606
H        -3.34042403773365    2.54925629628243    2.61153355834809
H        -1.05319432830199    1.55853562774804    2.41902720010943
Ir        0.42150000000000   -0.81650000000000    0.91330000000000
H         0.87260000000000   -2.23030000000000    1.54050000000000
B         0.50694686703554    0.41716783929512   -0.79544336700613
O         0.17877800452320   -0.03658835937903   -2.06682716585631
C         0.01059306643201    1.09731781368805   -2.94372629438600
C         0.48828632915073    0.74970131538767   -4.34948826040086
H         1.50732949089130    0.37306035922490   -4.32867348684847
H         0.44294560558792    1.62570174463521   -4.99722409290673
H        -0.15048154476195   -0.02642392412103   -4.76972548905016
C        -1.49376255469355    1.39969264560436   -2.96827154100346
H        -1.73309488905638    2.21319720358906   -3.65162025940644
H        -2.02417655213261    0.50274956335029   -3.28827127500898
H        -1.83982233475200    1.65383021074302   -1.96623836896436
C         0.83219393094857    2.20680008724081   -2.21195608474214
O         0.75858916948318    1.77597501740430   -0.83597404084796
C         2.31446105398387    2.19235160488853   -2.60023849528313
H         2.71929250550237    1.19333197196784   -2.45101510080286
H         2.46564791533597    2.51465705453650   -3.62980888845194
H         2.85646553991749    2.86660955150151   -1.93809356957077
C         0.27968153432218    3.62287710556696   -2.33701738691772
H        -0.72354710237307    3.69139558719798   -1.92445223598075
H         0.91927276325516    4.30648533198450   -1.78018135248017
H         0.26150601110957    3.93648506810877   -3.38097911675398
B         1.56485771172202    0.61144502648695    1.86514302243940
O         2.92750882522202    0.56542309605430    2.13596151025697
C         3.36398476034345    1.88674568622691    2.50954559448646
C         4.53408732013787    1.78894895255561    3.47996722360703
H         4.28158554697440    1.15946279099512    4.32921367698452
H         5.38897543386874    1.34472163812601    2.97185156276613
H         4.81677947943713    2.77900823909470    3.83691529726880
C         3.79922221136312    2.57479721908498    1.21112247897567
H         4.20053823662046    3.57058404970447    1.39503642084037
H         4.56308877764141    1.96334218382202    0.73371103664476
H         2.95076490519136    2.62680035834146    0.53012240948339
C         2.05391382076335    2.50406431194188    3.09061295395081
O         1.04193249932185    1.80778721591629    2.33708409573157
C         1.89439614871262    4.00632965653898    2.89031967907861
H         1.86890242090574    4.25028270841899    1.83208844438908
H         0.95696415963887    4.33513525155147    3.33720597736573
H         2.71481109068544    4.54267477796889    3.36652617458242
C         1.83298172991290    2.13890775062483    4.56252807526190
H         1.93450199332265    1.06296761984311    4.69862113432518
H         2.53432510439679    2.65996320854329    5.21187602156057
H         0.81854906185548    2.41748202671293    4.84685828170967
B         2.27820000000000   -1.33089999999999    0.17410000000000
O         2.90065211300970   -2.56224413174471    0.38608873231705
C         4.26536308389742   -2.48303748743897   -0.08008037376207
C         5.11003281953518   -2.05890105476670    1.12590483982955
H         4.75313046098470   -1.09948586805703    1.49798092687937
H         4.97787604890190   -2.79442644028340    1.91847705209199
H         6.16804427076552   -1.99836134816243    0.87442625700389
C         4.72072102698564   -3.84476729418773   -0.59065979803522
H         4.74970733342960   -4.54903081075906    0.23945208261447
H         5.71868475384972   -3.77315704442607   -1.02268570172676
H         4.03482553647187   -4.23209826867895   -1.33928197679735
C         4.16587466171748   -1.35905698847782   -1.15918101689822
O         3.07374888574433   -0.56274087092661   -0.66257197939233
C         5.40911079940180   -0.49068683700911   -1.31697252964425
H         6.26529350266007   -1.09639191924363   -1.61300751153452
H         5.23069318641878    0.26090459123661   -2.08489506391072
H         5.63684988526317    0.02312321544840   -0.38753611981930
C         3.72868531032247   -1.89778717716627   -2.52755297370624
H         2.83670832389185   -2.51334176305643   -2.41855649351327
H         3.47102980655671   -1.05612635548485   -3.16921640540080
H         4.51857556611381   -2.47485340330054   -3.00566342744899
H        -3.38236392541642   -3.98639542091153   -2.58204203178867
H        -5.20226765637878    1.50242458917386    1.29971835300490
C         0.23589999999998   -1.68140000000001    2.96030000000001
N        -0.76919638319133   -2.43419718274493    3.52839960822719
C         1.35396380831865   -1.89880505174629    3.76570876193635
C        -2.16837459015541   -2.44977932212297    3.19273127379701
C        -0.31561209509435   -3.04487501971287    4.66109407407143
C         1.00513780386698   -2.73136523004648    4.83903811156264
H         2.32966810135788   -1.49884639905914    3.56230017934162
C        -2.62880354319464   -3.53197048843246    2.24551731851843
H        -2.73702620741551   -2.56461661893022    4.12369318711560
H        -2.43811817235185   -1.48198313354960    2.76403894814497
H        -0.96818482233264   -3.65143548792817    5.26189504621097
H         1.65082519784142   -3.08961612988898    5.61977825159422
N        -1.73824527023539   -4.36149559436614    1.71916705060221
C        -3.99121057946020   -3.62611421903950    1.96170837888374
C        -2.16813940314573   -5.29860411755042    0.88531877674961
C        -4.43119535675416   -4.60502384494692    1.09050829592131
H        -4.68459326546424   -2.93851390448362    2.42302906839820
C        -3.49592355936747   -5.46348832036297    0.53151737206134
H        -1.39556385402730   -5.94163270805447    0.48420499072720
H        -5.48140419493843   -4.69776958065313    0.85247484663537
H        -3.79122138494263   -6.23652637946346   -0.16105360094028
106
 energy: -152.879934068604 gnorm: 0.040651362551 xtb: 6.4.0 (f63f532)
N        -0.95044414976157   -2.07580681383716   -0.27251756753919
C        -2.22704523531456   -1.66694688586802   -0.38886455085864
C        -3.12640189890457   -2.34254514729988   -1.22118564742231
C        -2.70187962957649   -3.43922520730428   -1.93604196844151
C        -1.37970029328883   -3.85207489349593   -1.80162871651543
C        -0.55372348242660   -3.14122010653215   -0.95946635488295
H         0.47537315892625   -3.43041152892487   -0.80784864573481
H        -1.00901717647644   -4.71310987002943   -2.33286168677333
H        -4.14914840959720   -2.01615108211902   -1.30943641851952
C        -2.59740978442148   -0.49815665475419    0.39953171026209
N        -1.60482892184801    0.08425580504651    1.10747258222223
C        -1.89132058791757    1.14160446447767    1.86356820270953
C        -3.15742895301384    1.67964449992402    1.96959930403580
C        -4.19137106509870    1.09277939043373    1.24612725914638
C        -3.90543336245309   -0.00178203653674    0.45844864168438
H        -4.69648730135641   -0.47455298416447   -0.09834857751276
H        -3.33502125459615    2.53136755633034    2.60557525060135
H        -1.05267173788518    1.55875258670325    2.39757433090589
Ir        0.42150000000000   -0.81650000000000    0.91330000000000
H         0.87260000000000   -2.23030000000000    1.54050000000000
B         0.50800860404440    0.42543336453693   -0.77551617119765
O         0.16189826028841   -0.02647870796391   -2.04120493295641
C         0.00611098802788    1.09641124297863   -2.92503996361414
C         0.48712180576281    0.74692447025159   -4.32957305696265
H         1.50252207899099    0.36691926364811   -4.31129231661578
H         0.44058749241619    1.62688297571655   -4.96607309535988
H        -0.15576921775192   -0.02280678924846   -4.74848766422027
C        -1.49688581098315    1.40677579931657   -2.96589239615610
H        -1.71892760473454    2.21734986033669   -3.65333010998700
H        -2.02691725042114    0.51250178833202   -3.28704221271451
H        -1.84403797949109    1.66301830284237   -1.96712205248381
C         0.82476023064319    2.20684802075929   -2.19819476501320
O         0.76566070898443    1.77761164938245   -0.82792402713315
C         2.30386348132005    2.19940363920191   -2.59912635568369
H         2.70669599235318    1.20215618404186   -2.44446831459904
H         2.44077688890813    2.51597875653517   -3.62917019667996
H         2.84563348100340    2.87757834688649   -1.94455299830033
C         0.26886275846330    3.62144747716497   -2.32885548831587
H        -0.72990369526076    3.69473953689093   -1.91201254737132
H         0.91373744893366    4.30312113745619   -1.78106609995236
H         0.25021731482844    3.91971943310174   -3.37371373230606
B         1.57091099532060    0.61858005550229    1.86869442935205
O         2.92815219247704    0.57668333466243    2.12350563527158
C         3.36471324231793    1.88771481051167    2.51238020783264
C         4.53331295117402    1.78831992060622    3.48537951116159
H         4.28402759191874    1.15284523404443    4.32806057263125
H         5.38570329939400    1.35200832759003    2.97212755269457
H         4.80596182366895    2.77744595037596    3.84173639548184
C         3.80391528740392    2.58758006681235    1.22181157711606
H         4.20148011891751    3.57935618011113    1.41411705186864
H         4.56670977522419    1.97919079568998    0.74363505124802
H         2.95347612526620    2.63386021334689    0.54604650083333
C         2.05628402373349    2.50222279378707    3.09328138680772
O         1.04574938834804    1.79928698744694    2.35355199790125
C         1.89729875659675    4.00458869932263    2.89277345074531
H         1.86345231116042    4.24783372084605    1.83688531627206
H         0.96497008352461    4.32867022465097    3.34665458294355
H         2.72137131297973    4.53196059807389    3.36437075778449
C         1.84642670090142    2.14391357484830    4.56923913930269
H         1.94958548916755    1.06933753821724    4.69775619739178
H         2.55066431069795    2.66760541176897    5.20762565378922
H         0.83439219476383    2.41971294813366    4.85539725226467
B         2.27820000000000   -1.33089999999999    0.17410000000000
O         2.90293735962611   -2.55009623864176    0.39082834214542
C         4.25777175402808   -2.48050967509212   -0.08465506499277
C         5.11320718609159   -2.06122225416444    1.11494340391286
H         4.75094599559250   -1.10536791957482    1.48514784042074
H         4.98182520108643   -2.79603267524402    1.90455486029495
H         6.16533583109492   -2.00125601382975    0.85425437064821
C         4.71287991159581   -3.84129673150285   -0.59938919555082
H         4.74428298075149   -4.53924294478152    0.23195024126743
H         5.70671998068154   -3.75984658393917   -1.03017400237403
H         4.02695178376277   -4.23000196280461   -1.34358477854034
C         4.16081321527666   -1.35701725030789   -1.16011886890148
O         3.06184685641089   -0.57097511258423   -0.67119476431785
C         5.40538904147984   -0.49009630130210   -1.31378141842680
H         6.25345864442740   -1.10297642652010   -1.60522097969855
H         5.22798809279667    0.25539121785104   -2.08382932718555
H         5.63012161874911    0.02498412227464   -0.38715179893541
C         3.73734255351672   -1.89803871980795   -2.53259816556970
H         2.84654797230135   -2.51093753892893   -2.42243653984060
H         3.48299099472250   -1.05787448410779   -3.17399140295987
H         4.53324096637053   -2.47032655938179   -2.99852696101011
H        -3.38387419502894   -3.97095734632696   -2.58123368836036
H        -5.19639964585144    1.48218160391558    1.30195253034659
C         0.23589999999998   -1.68140000000001    2.96030000000002
N        -0.77589598451804   -2.42333752685722    3.53233008374852
C         1.34847827494801   -1.88906775984295    3.77964558299652
C        -2.16959136508542   -2.43620974958016    3.18865996938944
C        -0.33102500039156   -3.01994306801098    4.67499692431196
C         0.98806042135026   -2.70547127690844    4.85944654256764
H         2.32338952815274   -1.48882321496058    3.58061043781669
C        -2.62630284675641   -3.52535276528708    2.24537606472100
H        -2.74591308154802   -2.54408394071126    4.11636926166225
H        -2.43685287597911   -1.47211952855022    2.75085242862288
H        -0.98815060371357   -3.61700841332649    5.27879580935874
H         1.62564735454986   -3.05261744564866    5.65076549096113
N        -1.73608416803245   -4.35418006678826    1.72802296820661
C        -3.98884075175562   -3.62219654296289    1.95828481714606
C        -2.15809065764677   -5.29700279271747    0.90063776190891
C        -4.42352816055584   -4.60723767399850    1.09312068342816
H        -4.68422502895813   -2.93330084232803    2.41299648782169
C        -3.48458210133435   -5.46835840633004    0.54309602151999
H        -1.38335915122807   -5.94164119214360    0.50746910967964
H        -5.47205130828968   -4.70424473792972    0.85251060433804
H        -3.77548708524011   -6.24729749912517   -0.14354975245948
106
 energy: -152.881051603031 gnorm: 0.040183121600 xtb: 6.4.0 (f63f532)
N        -0.94018035325397   -2.06655230095028   -0.28640034990867
C        -2.21685212020519   -1.65598655350390   -0.40192432329707
C        -3.12014002199882   -2.33090903188022   -1.23196855335193
C        -2.70052425356731   -3.42663166074316   -1.94891743937421
C        -1.37581942221441   -3.83793896786754   -1.82043599723231
C        -0.54822861782411   -3.12869322301574   -0.97904717658257
H         0.47992466973319   -3.42360303320756   -0.83006743486961
H        -1.00814445007366   -4.69794471985344   -2.35378578032547
H        -4.14236506815569   -2.00247996326369   -1.31451993154341
C        -2.58560434422868   -0.49137355966450    0.38427370437022
N        -1.59326997576228    0.09186176021134    1.09298906696858
C        -1.88381677175168    1.14784097566008    1.84783170684872
C        -3.15163559860867    1.67857556219649    1.96194733345914
C        -4.18724359109432    1.08693117981508    1.24156192177526
C        -3.89637914649377   -0.00006824575723    0.44772860140021
H        -4.68525917400193   -0.47668782685883   -0.10838153186911
H        -3.33198891175160    2.52476010938599    2.60296918408760
H        -1.04768944566677    1.56851989435899    2.38327506866829
Ir        0.42150000000000   -0.81650000000000    0.91330000000000
H         0.87260000000000   -2.23030000000000    1.54050000000000
B         0.50491319163296    0.43634636492359   -0.75834808479939
O         0.14368827298807   -0.01802457305515   -2.01876267775099
C        -0.00196564197249    1.09777381918395   -2.90644019691803
C         0.48328082557410    0.74250706152272   -4.30897940349427
H         1.49626650199307    0.35722865643342   -4.28803418146816
H         0.44170208922765    1.62419931384225   -4.94236971462405
H        -0.16334161534129   -0.02325855660188   -4.72854356884418
C        -1.50403631863270    1.41619667834421   -2.96103653413871
H        -1.71228701428682    2.22545885909788   -3.65330794278989
H        -2.03504908182251    0.52377555735378   -3.28452603760781
H        -1.85777699884884    1.67707131228417   -1.96615862252301
C         0.81741910529261    2.21034687693199   -2.18366461847658
O         0.77140310866537    1.78420575344319   -0.81595666123045
C         2.29409479361244    2.20785436058632   -2.59722418146786
H         2.70038007659174    1.21283872387718   -2.43865725757775
H         2.41866123625276    2.51822413616461   -3.63004938467964
H         2.83716206570548    2.89276952559036   -1.95131573618319
C         0.25755837778947    3.62406678273652   -2.31760088161414
H        -0.73819404527397    3.69920423588651   -1.89470325272054
H         0.90640060842837    4.30920260704609   -1.77947460342084
H         0.23236755058932    3.91156687086382   -3.36479847933497
B         1.57388675212014    0.61723406248307    1.88045722095068
O         2.93203354794484    0.58274086364723    2.11198904099232
C         3.36662152221732    1.88796508736636    2.51401716439926
C         4.53525972293276    1.78527075302093    3.48837727337444
H         4.28855335266317    1.14210672657723    4.32558636778375
H         5.38981379654757    1.35798751657524    2.97172121837263
H         4.79986330238554    2.77370457676406    3.85112606224900
C         3.80868017284716    2.60155650311147    1.23075557963979
H         4.20175998860332    3.59219560970559    1.43378765829216
H         4.57490435048287    1.99936954710555    0.75069442692038
H         2.95917241084203    2.64896815824247    0.55453978509001
C         2.05907616157363    2.49961814973443    3.09957611475827
O         1.04735893879270    1.79027022583538    2.37224270641686
C         1.89757665134454    4.00239884737940    2.89684717940768
H         1.85418197372509    4.24453226931904    1.84122729225360
H         0.96999413549022    4.32655088856091    3.35958751809716
H         2.72710097619903    4.52705857860287    3.36062611391018
C         1.86103317933918    2.14794873119415    4.57989452266416
H         1.96702652333706    1.07417814914881    4.70916654061312
H         2.56994050782229    2.67591871995997    5.20834358474824
H         0.85078052979065    2.42298848546194    4.87141527728645
B         2.27820000000000   -1.33089999999999    0.17410000000001
O         2.90467097583075   -2.54325260025572    0.39687168393473
C         4.25215383140588   -2.47871358146321   -0.08886794053507
C         5.11838902005726   -2.06263075071936    1.10522039000346
H         4.75685386033161   -1.10788130603932    1.47814504974608
H         4.99116471446285   -2.79901811063608    1.89345159884342
H         6.16734241196849   -2.00284621044449    0.83538352732908
C         4.70379236404107   -3.84036393885568   -0.60747139139146
H         4.73965838046286   -4.53728656640936    0.22396885270685
H         5.69489298164036   -3.75432628943355   -1.04205276970576
H         4.01499546028962   -4.22910217820054   -1.34852763768691
C         4.15494015534554   -1.35480204011035   -1.16356594626901
O         3.05084501556945   -0.57476051950673   -0.68155162372327
C         5.39999121999514   -0.48649713538733   -1.31187805564926
H         6.24669751440181   -1.10343994130577   -1.59685184739740
H         5.22652067579343    0.25565970212417   -2.08548124381160
H         5.62043672577129    0.03083159361932   -0.38590152623527
C         3.74435519752673   -1.89769600404683   -2.54036419623568
H         2.85429883030302   -2.51180420453537   -2.43590788462893
H         3.49515176633208   -1.05825073927788   -3.18421734366724
H         4.54694296344316   -2.46778202068244   -2.99584997101860
H        -3.38512447134415   -3.95879768147513   -2.59014255772449
H        -5.19448370823855    1.46806117531229    1.30554334444326
C         0.23589999999998   -1.68140000000001    2.96030000000002
N        -0.78411320587872   -2.40808183548758    3.53721900023267
C         1.34054698767772   -1.87701288371893    3.79374748840861
C        -2.17355804272549   -2.41797409617555    3.18251806224906
C        -0.35170729341726   -2.98522545390309    4.69492165136624
C         0.96657028762026   -2.67128533070886    4.88571434661355
H         2.31708566359744   -1.48012066646582    3.59716456130369
C        -2.62431928694483   -3.51498632965920    2.24466291416390
H        -2.75922309753006   -2.51593897930654    4.10586839738692
H        -2.43567679934201   -1.45774201343941    2.73292602683357
H        -1.01613323338643   -3.56887649428079    5.30414937948449
H         1.59477443208245   -3.00447183633288    5.69096232488669
N        -1.73038668705870   -4.34444989241521    1.73783921708212
C        -3.98607940313330   -3.61692685616431    1.95260241137711
C        -2.14456084809937   -5.29613658396279    0.91702232607009
C        -4.41327289976307   -4.61108604300849    1.09446437819869
H        -4.68515416090912   -2.92612224162339    2.39862427626151
C        -3.46934302071985   -5.47506939089985    0.55600640444848
H        -1.36663259227413   -5.94247320814410    0.53298455053413
H        -5.46041936627266   -4.71409429741875    0.85029785629077
H        -3.75538109491630   -6.26191936682277   -0.12342702707407
106
 energy: -152.882397800060 gnorm: 0.039820216795 xtb: 6.4.0 (f63f532)
N        -0.92713038502840   -2.05928862758760   -0.30297901570095
C        -2.20394295620451   -1.64430609682570   -0.41927096088348
C        -3.11005541216976   -2.31631385482591   -1.25075625667710
C        -2.69507173944314   -3.41130330792588   -1.97106840774251
C        -1.36809568123208   -3.82263187914119   -1.84824672802672
C        -0.53810756415644   -3.11748411544035   -1.00478380358779
H         0.49131217997978   -3.41430984201835   -0.86409902795381
H        -1.00188282559840   -4.67887205921876   -2.38895682126855
H        -4.13142798618876   -1.98334969494755   -1.32898506022727
C        -2.57145657029423   -0.48247702181540    0.36732171223943
N        -1.57954459896831    0.10075512878214    1.08025933843253
C        -1.87339977268804    1.15946011750031    1.83183853587753
C        -3.14374955535027    1.68284307130997    1.95104401803589
C        -4.18055242581633    1.08554782996809    1.23349345416712
C        -3.88435683991062    0.00606024737545    0.43256458266912
H        -4.67012403397201   -0.47340123124576   -0.12619902071022
H        -3.32701634580047    2.52555987008204    2.59558136735166
H        -1.03827108036915    1.58820836248544    2.36357763036870