22
 energy: -32.351556617512 gnorm: 0.052811486796 xtb: 6.4.0 (f63f532)
C         0.58557000000000    0.60283000000000   -1.17573000000000
C         0.89521000000000    1.19919000000000    0.04019000000000
C         0.48946000000000    0.56393000000000    1.20039000000000
N        -0.19645000000000   -0.60007000000000    1.22029000000000
C        -0.48340000000000   -1.18092000000000    0.02600000000000
C        -1.25480000000000   -2.47484000000000    0.05509000000000
N        -0.37786000000000   -3.63839000000000    0.08442000000000
C         0.02738000000000   -4.36102000000000   -1.01021000000000
C         0.73600000000000   -5.45366000000000   -0.56073000000000
C         0.76337000000000   -5.38845000000000    0.85221000000000
C         0.07332000000000   -4.25728000000000    1.22450000000000
C        -0.10806000000000   -0.60517000000000   -1.18750000000000
H         0.88395000000000    1.07318000000000   -2.10818000000000
H         1.44026000000000    2.13475000000000    0.08313000000000
H         0.71004000000000    0.98717000000000    2.17641000000000
H        -1.90974000000000   -2.56556000000000   -0.81908000000000
H        -1.89330000000000   -2.51854000000000    0.94605000000000
H        -0.22569000000000   -4.04973000000000   -2.01517000000000
H         1.17991000000000   -6.22008000000000   -1.18265000000000
H         1.23301000000000   -6.09216000000000    1.52800000000000
H        -0.13612000000000   -3.84213000000000    2.20252000000000
H        -0.35392000000000   -1.08058000000000   -2.13184000000000
22
 energy: -32.354649680738 gnorm: 0.019488546355 xtb: 6.4.0 (f63f532)
C         0.59351745913616    0.59373780384884   -1.17966258543144
C         0.89444434705716    1.18167285038676    0.03896849415771
C         0.48301656738440    0.53696468530136    1.19238514382977
N        -0.19383792536691   -0.60891261976541    1.19728603540054
C        -0.48168459036576   -1.17550333852740    0.02092134031027
C        -1.24999310317792   -2.47294002864979    0.06228232988506
N        -0.38554102408774   -3.63759355374124    0.08878451595524
C         0.01881579020692   -4.35732736923224   -0.99671857078892
C         0.73593842210631   -5.43933447583813   -0.55788899999247
C         0.76782084553219   -5.37272468800650    0.84868764928248
C         0.06874846554745   -4.25361711189634    1.21659937991111
C        -0.10269616243202   -0.60505674585630   -1.18908494979266
H         0.88664072712413    1.06622789439181   -2.10746665936607
H         1.43030015729185    2.11793012525419    0.09110904419607
H         0.68760512591288    0.95292461874756    2.17150573336403
H        -1.89571581617192   -2.55005934144767   -0.81802624974427
H        -1.87536589059894   -2.49674774028536    0.96050592001955
H        -0.23457693927358   -4.05032473297748   -1.99421438811144
H         1.18113327756374   -6.19870728111463   -1.17593861429809
H         1.24035343809013   -6.07133341170207    1.51604623478863
H        -0.13840318120167   -3.84383712964950    2.18715664725834
H        -0.35237999027687   -1.08296840924049   -2.12512745083346
22
 energy: -32.355135575820 gnorm: 0.004083019340 xtb: 6.4.0 (f63f532)
C         0.59863358119712    0.58612349903222   -1.18147359508173
C         0.89398968523227    1.17017107208791    0.04055083954713
C         0.47646803818495    0.51993927060669    1.19113392537050
N        -0.19189145702849   -0.61953259335317    1.18326165466208
C        -0.47686504751113   -1.18091736698412    0.01601902359341
C        -1.25678024558190   -2.47490122930306    0.06386021466170
N        -0.40134898654656   -3.63881643497853    0.09104613717986
C         0.00853690247086   -4.35168660676972   -0.99070277628786
C         0.73979593199367   -5.42409823149079   -0.55779886299218
C         0.77545709393941   -5.35607497406154    0.84770980873659
C         0.06487601722223   -4.24532434798524    1.21309475124618
C        -0.09642259207365   -0.61162875446322   -1.19391078717524
H         0.89741225241403    1.05704598509558   -2.10607871517856
H         1.43027613082686    2.10387262864311    0.09966019955032
H         0.67925391990448    0.92802514061057    2.17289326707579
H        -1.90202806025019   -2.54364416083852   -0.81620271702395
H        -1.86924433284004   -2.47932642476184    0.96939500911350
H        -0.24960033663301   -4.04973491027076   -1.98611530823933
H         1.19061397751137   -6.17768256341771   -1.17422929758813
H         1.25698328129000   -6.04905216895755    1.51015351356126
H        -0.14122230959147   -3.83875721850825    2.18225038638842
H        -0.34875344413083   -1.09152960993209   -2.12640667111974
22
 energy: -32.355255999170 gnorm: 0.003502777069 xtb: 6.4.0 (f63f532)
C         0.60587819717154    0.57805450024192   -1.18056432951230
C         0.89937908610420    1.16103062172659    0.04283838413506
C         0.47849035496085    0.51009560519614    1.19290591843695
N        -0.19464521579353   -0.62568038037230    1.17956150889824
C        -0.48114334851718   -1.18417579347475    0.01249978237649
C        -1.26687139431057   -2.47653714824521    0.06317072775060
N        -0.41522429592994   -3.64052954849397    0.09139333662195
C        -0.00009112000398   -4.34894045838400   -0.99021870459259
C         0.74482877834594   -5.41313169162291   -0.55882988894410
C         0.78448101476311   -5.34260425882665    0.84708312275513
C         0.06152950099158   -4.23926150727370    1.21246314038890
C        -0.09427803848641   -0.61708570300774   -1.19731354263396
H         0.90818759372006    1.04931217298661   -2.10382691822894
H         1.43451851454818    2.09499144485115    0.10426889951732
H         0.67713406035047    0.91858566558011    2.17531079641582
H        -1.91494989349915   -2.54283529151622   -0.81431071893307
H        -1.87349902139848   -2.47186522845988    0.97192484348231
H        -0.26474121369615   -4.05204737955234   -1.98587626975740
H         1.20247841723775   -6.16263374015449   -1.17505055780056
H         1.27683817460966   -6.02965988702678    1.50779854142591
H        -0.14532749726813   -3.83464673040275    2.18269327265713
H        -0.34483265389988   -1.09796526376890   -2.12981134445889
22
 energy: -32.355391460820 gnorm: 0.003768343329 xtb: 6.4.0 (f63f532)
C         0.61698021769788    0.56523231859538   -1.17793628036765
C         0.90534760427841    1.14870481904794    0.04661495347287
C         0.47756704376626    0.49941089625940    1.19587526153665
N        -0.20158335145834   -0.63376569348118    1.17684211208436
C        -0.48648049072399   -1.19060342677824    0.00787138388901
C        -1.28353004494622   -2.47823871540538    0.06228483795190
N        -0.43770195932702   -3.64401957678907    0.09140248030864
C        -0.01410712609493   -4.34586316148275   -0.99110328351794
C         0.75260256605002   -5.39629326204378   -0.56121410081928
C         0.79915062145684   -5.32115630441958    0.84511812370002
C         0.05821756514692   -4.22924622538338    1.21161099805665
C        -0.08821278039491   -0.62744386948342   -1.20111918333749
H         0.92772021416858    1.03565726092072   -2.09936331235025
H         1.44259470240400    2.08133343193654    0.11039728325132
H         0.67702125330533    0.90567859541185    2.17889497135423
H        -1.93697119525973   -2.54150333405814   -0.81091715524128
H        -1.88369930260517   -2.46223332540642    0.97463589879699
H        -0.29190615049749   -4.05874144137896   -1.98706655767709
H         1.22058525884383   -6.13985671118668   -1.17749822526636
H         1.30932346698565   -5.99812696045448    1.50368583822155
H        -0.14992293104560   -3.82763426913649    2.18376718136904
H        -0.33485518175040   -1.10882104528399   -2.13467322541584
22
 energy: -32.355478016448 gnorm: 0.003718759628 xtb: 6.4.0 (f63f532)
C         0.62705054753591    0.55217253381570   -1.17518458715067
C         0.91202123960944    1.13619947071762    0.04965362433672
C         0.47659433203071    0.49045627336991    1.19794865732316
N        -0.21120744574619   -0.63841274261898    1.17667429399014
C        -0.49405047809302   -1.19473208441711    0.00602463793282
C        -1.29816713474875   -2.47853798822848    0.06243148584571
N        -0.45550098133538   -3.64605791963316    0.09095764199056
C        -0.02561216763750   -4.34303582050488   -0.99264117414238
C         0.75876879634798   -5.38117886717547   -0.56403729394546
C         0.81225270492354   -5.30139517730830    0.84201678951645
C         0.05742938788195   -4.21946726006420    1.21013423462553
C        -0.08423489444740   -0.63698856996084   -1.20173878093514
H         0.94670964816004    1.01991032783634   -2.09538036426143
H         1.45248604612993    2.06707622542151    0.11444280458695
H         0.67432387400690    0.89670597403300    2.18127325692263
H        -1.95524573562718   -2.54018881322194   -0.80815815890357
H        -1.89528166515947   -2.45768478597261    0.97641263257125
H        -0.31567885720949   -4.06476121780597   -1.98800654641046
H         1.23511476304572   -6.11938042468339   -1.18077388727621
H         1.33763574956001   -5.96867527812332    1.49904704338782
H        -0.15180907003692   -3.81998636941491    2.18324024296860
H        -0.32545865919093   -1.11956748606061   -2.13622655297299
22
 energy: -32.355553869505 gnorm: 0.002770427511 xtb: 6.4.0 (f63f532)
C         0.63642013379533    0.53897426449329   -1.17261551640542
C         0.91791477327780    1.12479168692973    0.05197380603058
C         0.47269412521248    0.48494807598326    1.19941179922797
N        -0.22230567336581   -0.63993575364869    1.17833147350780
C        -0.50185084689162   -1.19762758490474    0.00687890318136
C        -1.31032396909084   -2.47805047675327    0.06330180878681
N        -0.46786974601979   -3.64626811156537    0.09017322279786
C        -0.03466285522370   -4.34021423220472   -0.99446956586200
C         0.76325045519240   -5.36809945396787   -0.56728019131611
C         0.82348988852284   -5.28399081351293    0.83811914748988
C         0.05885711656493   -4.21007245740783    1.20803159641773
C        -0.08133792154387   -0.64623962788533   -1.19969819013174
H         0.96437047098913    1.00245070637173   -2.09220820957118
H         1.46418235680031    2.05242652772723    0.11685924342363
H         0.66990278661508    0.89108773376114    2.18289442936973
H        -1.96883896048087   -2.53902152982450   -0.80649373498043
H        -1.90685324120985   -2.45751464238668    0.97763492394256
H        -0.33518008506141   -4.06906910045447   -1.98853425355479
H         1.24514880775493   -6.10196224191731   -1.18485771642603
H         1.36038742638524   -5.94288619859635    1.49406958738552
H        -0.15070472181672   -3.81132890693319    2.18124835922951
H        -0.31855032040612   -1.12992786330327   -2.13466092254322
22
 energy: -32.355645675437 gnorm: 0.001884491626 xtb: 6.4.0 (f63f532)
C         0.64834417859830    0.52134378313041   -1.16926982210285
C         0.92628595171589    1.11001860261195    0.05466039114937
C         0.46614898416238    0.47997996979073    1.20122147717335
N        -0.23860080472173   -0.63898384643116    1.18175216124985
C        -0.51336719832348   -1.19999033127468    0.01029292326152
C        -1.32465888970562   -2.47713839539622    0.06491405668848
N        -0.47929205063557   -3.64453923992293    0.08881832950223
C        -0.04512526260247   -4.33643581661077   -0.99703203221687
C         0.76758532275496   -5.35289779516843   -0.57207977432232
C         0.83720714903460   -5.26327492579332    0.83229289459432
C         0.06288125901807   -4.19780288814910    1.20459082896313
C        -0.07923321171485   -0.65783045393008   -1.19499465629162
H         0.98785553093321    0.97700488997206   -2.08857385191867
H         1.48170728777387    2.03238710713443    0.11909292614775
H         0.65987751426859    0.88832000416120    2.18461606227425
H        -1.98285330448652   -2.53790596156635   -0.80542739762154
H        -1.92219356219481   -2.46099221986013    0.97889167986034
H        -0.35737981221590   -4.07261283316440   -1.98899103422279
H         1.25412276461478   -6.08219914477085   -1.19117875114634
H         1.38658986653891   -5.91247404431314    1.48709798908204
H        -0.14534802866176   -3.79805109374188    2.17734879520000
H        -0.31241368415096   -1.14345536670750   -2.12993319530357
22
 energy: -32.355789218041 gnorm: 0.002864976266 xtb: 6.4.0 (f63f532)
C         0.67416996189078    0.48404418553619   -1.16197666955731
C         0.94408103334993    1.07965300914992    0.06054550989961
C         0.44900357852643    0.47276643519176    1.20540845362336
N        -0.27468080255288   -0.63396442546617    1.18855722520803
C        -0.53835071008518   -1.20345900460247    0.01847697496384
C        -1.35308321021896   -2.47602142546908    0.06828302131150
N        -0.49834351381159   -3.63871494140220    0.08598819879553
C        -0.06638798625414   -4.32861902261290   -1.00200236544131
C         0.77493072265108   -5.32377305737798   -0.58258657875485
C         0.86502534875384   -5.22273757595151    0.81967324341551
C         0.07387544160003   -4.17191381241153    1.19692013357662
C        -0.07611334606239   -0.68103623186454   -1.18473484126572
H         1.03799804746402    0.92183673620482   -2.08078478292935
H         1.52045245595722    1.98949793930216    0.12436570450849
H         0.63401536020875    0.88740428699795    2.18806566390718
H        -2.00871372558076   -2.53681881347033   -0.80415828520960
H        -1.95314096668114   -2.46993035033837    0.98134250256140
H        -0.40080811919074   -4.07782432729096   -1.98978807982111
H         1.26783056241235   -6.04553172941265   -1.20511036715812
H         1.43829868247139   -5.85384559607436    1.47166236954026
H        -0.12812500610661   -3.76753886580405    2.16866410326158
H        -0.30379380874160   -1.17100341283391   -2.11870113443549
22
 energy: -32.355862827285 gnorm: 0.002638236467 xtb: 6.4.0 (f63f532)
C         0.69127136474999    0.45854748643305   -1.15611744538010
C         0.95608442799510    1.05846209635372    0.06545863914459
C         0.43764418152902    0.46779828976747    1.20864435718343
N        -0.29918329509867   -0.63008052117993    1.19133100451002
C        -0.55502932864192   -1.20543049898596    0.02270260885649
C        -1.37184717103885   -2.47640943719234    0.07013869534616
N        -0.51007643836201   -3.63409466071362    0.08451461846586
C        -0.08047892231236   -4.32314277627420   -1.00468968165860
C         0.77865682240145   -5.30492783052274   -0.58988049230031
C         0.88334411952210   -5.19534013170556    0.81079285561495
C         0.08198281955110   -4.15347934545860    1.19170056462050
C        -0.07435216376738   -0.69635833496162   -1.17912157482659
H         1.07250370691081    0.88366472979913   -2.07383689437124
H         1.54602037267965    1.95944653132103    0.12966870685398
H         0.61389675956805    0.88902246259464    2.19019612972058
H        -2.02632456440483   -2.53724072951390   -0.80294141198156
H        -1.97217705429131   -2.47415466253079    0.98308273922278
H        -0.42878216515963   -4.08106043367995   -1.98996022157563
H         1.27478772248195   -6.02258254427542   -1.21457745392502
H         1.47270924811858   -5.81487877863229    1.45969056180077
H        -0.11367678855318   -3.74516793158232    2.16320831082489
H        -0.29883365387787   -1.19012297906005   -2.11189461614589
22
 energy: -32.355924307875 gnorm: 0.002099855810 xtb: 6.4.0 (f63f532)
C         0.71355355203361    0.42600732258091   -1.14819092266458
C         0.97034902218511    1.03186622521825    0.07237666388176
C         0.42158086744714    0.46247441401094    1.21269050788073
N        -0.33079877757918   -0.62458721637813    1.19333520362876
C        -0.57593509283913   -1.20729850637913    0.02670650793309
C        -1.39470518197388   -2.47740545409938    0.07237125627840
N        -0.52390213688419   -3.62791803849491    0.08306110255337
C        -0.09894221930026   -4.31694422838553   -1.00754582953905
C         0.78301398444674   -5.28156693958855   -0.59908538983496
C         0.90580859892133   -5.16091183988484    0.79934447151205
C         0.09258573837911   -4.12977986169673    1.18498026101720
C        -0.07188883825338   -0.71529685015509   -1.17316245537946
H         1.11613887981364    0.83572133595125   -2.06369807361254
H         1.57782312903418    1.92098154976503    0.13785878764805
H         0.58856319115369    0.89106527214423    2.19255216528619
H        -2.04844594840927   -2.53870623357163   -0.80082610563618
H        -1.99425636969671   -2.47821942566466    0.98568026597768
H        -0.46407634467223   -4.08609353647509   -1.98965945040730
H         1.28269115364779   -5.99462665172808   -1.22626161566409
H         1.51538775732971   -5.76601470482710    1.44342270902409
H        -0.09378570423873   -3.71611236024818    2.15626700424815
H        -0.29261926054534   -1.21416427209387   -2.10410706413125
22
 energy: -32.355945116172 gnorm: 0.001122849133 xtb: 6.4.0 (f63f532)
C         0.72459561290873    0.40912233817718   -1.14331210303911
C         0.97690141510787    1.01811409184818    0.07667146028256
C         0.41316941942758    0.46011537124116    1.21463462206084
N        -0.34770512146020   -0.62090952794055    1.19331468806301
C        -0.58638352546301   -1.20782323858359    0.02787967997482
C        -1.40571786903582   -2.47814470217047    0.07359770804832
N        -0.53002001215662   -3.62439650229907    0.08251888215643
C        -0.10847874526829   -4.31418546731170   -1.00876062467376
C         0.78388513863800   -5.27028522078700   -0.60416078445398
C         0.91722349730329   -5.14285797554027    0.79272275314577
C         0.09893823852699   -4.11680817182405    1.18110540705813
C        -0.07034507992430   -0.72496813926154   -1.17050693914869
H         1.13990217226825    0.80999993407016   -2.05684745707440
H         1.59319024030285    1.90067336366963    0.14338154366802
H         0.57318384252814    0.89399566273211    2.19335549789301
H        -2.05992100564711   -2.54029394666494   -0.79899244808142
H        -2.00391238912116   -2.47953914366383    0.98762725013865
H        -0.48228555903148   -4.08969492525482   -1.98901778704958
H         1.28407543732255   -5.98186086273060   -1.23249041667873
H         1.53733668077708   -5.74033087955110    1.43342267032079
H        -0.08164342759724   -3.69999609414664    2.15223258614345
H        -0.28784896040640   -1.22745596400854   -2.10026618875403
22
 energy: -32.355956189391 gnorm: 0.000884427682 xtb: 6.4.0 (f63f532)
C         0.73265572918664    0.39962492670171   -1.13981302496550
C         0.97964161841464    1.01148683546167    0.08000351610239
C         0.40566800760263    0.46079927567565    1.21552575674392
N        -0.35874256428216   -0.61753269454722    1.19207716204308
C        -0.59151858673049   -1.20758428676853    0.02733061306146
C        -1.41091302322207   -2.47850491008736    0.07444746088852
N        -0.53350543403025   -3.62293818526045    0.08228269640562
C        -0.11627541538319   -4.31484692932808   -1.00929229717290
C         0.78326311807932   -5.26533948007284   -0.60741925375850
C         0.92407697959857   -5.13298263959648    0.78816463632163
C         0.10408038882018   -4.10904670348068    1.17825224516618
C        -0.06723920649149   -0.73035274560378   -1.16958626713043
H         1.15532685276413    0.79596657222151   -2.05113558839262
H         1.59950912430926    1.89083189332486    0.14840037856597
H         0.56196509979635    0.89704077982778    2.19349206365350
H        -2.06678777929845   -2.54159207810730   -0.79675193633925
H        -2.00685259081611   -2.47876761630133    0.98977991103474
H        -0.49654098386394   -4.09527706874021   -1.98814487363237
H         1.28243306988986   -5.97720829004354   -1.23620318730557
H         1.55097570123715   -5.72568755181030    1.42610592612709
H        -0.07196002406753   -3.69002814451808    2.14921036116871
H        -0.28112008151332   -1.23559095894730   -2.09861629858559
22
 energy: -32.355958403258 gnorm: 0.001884772050 xtb: 6.4.0 (f63f532)
C         0.74061779645413    0.39022474029392   -1.13635736934739
C         0.98236218915583    1.00491316346591    0.08329602015321
C         0.39827316656772    0.46145386121308    1.21640464591331
N        -0.36964029219926   -0.61420750556684    1.19084597614673
C        -0.59660657404575   -1.20734641475633    0.02678037290051
C        -1.41605915934154   -2.47886360958841    0.07528242213815
N        -0.53695217134851   -3.62148772231117    0.08205221255480
C        -0.12396799781573   -4.31548368614177   -1.00981306228982
C         0.78267878552044   -5.26042291832485   -0.61063197138731
C         0.93084278969278   -5.12321050895636    0.78366925751558
C         0.10914243766828   -4.10137172375326    1.17543815110746
C        -0.06419552979008   -0.73567056965188   -1.16868570763842
H         1.17054194514173    0.78209311197836   -2.04548968535523
H         1.60577101694157    1.88107280570740    0.15336242440270
H         0.55093186228265    0.90001142948213    2.19362293941806
H        -2.07358300315100   -2.54288217281512   -0.79454379387717
H        -2.00977024240587   -2.47800346551576    0.99190161379958
H        -0.51060142817449   -4.10077198971183   -1.98728182104616
H         1.28085874342006   -5.97257176071880   -1.23986231054392
H         1.56443741571964   -5.71120675016766    1.41888435223764
H        -0.06242407476269   -3.68017913929779    2.14622874041769
H        -0.27451767553022   -1.24361917486332   -2.09699340721987
22
 energy: -32.355969635671 gnorm: 0.001406726693 xtb: 6.4.0 (f63f532)
C         0.74385982663385    0.38824179998566   -1.13467288141173
C         0.98247739237773    1.00457405685342    0.08477274665884
C         0.39369769957664    0.46362365316323    1.21669269813760
N        -0.37537174304528   -0.61170447492773    1.19066882901784
C        -0.59789196290937   -1.20718339128887    0.02674406404299
C        -1.41706455292077   -2.47880187065471    0.07599147369963
N        -0.53813083563229   -3.62178738623150    0.08173745270734
C        -0.12813806594403   -4.31758797638464   -1.01030133690863
C         0.77950552144523   -5.26153976754366   -0.61246915920653
C         0.93439174728376   -5.12056462931101    0.78102207117692
C         0.11296578152357   -4.09874578805763    1.17375192197451
C        -0.06101045146646   -0.73763370850249   -1.16774557710615
H         1.17959176582797    0.77746698533633   -2.04298665689651
H         1.60730498578244    1.88007950864914    0.15560898434018
H         0.54150926280273    0.90463449363975    2.19384939839335
H        -2.07598432421131   -2.54316415976113   -0.79282000480839
H        -2.00943253664593   -2.47758613034309    0.99348241184293
H        -0.51850414803679   -4.10528596475971   -1.98674359300124
H         1.27570558793737   -5.97488810893189   -1.24198993954677
H         1.57194198111004   -5.70620248708397    1.41499969847410
H        -0.05567177946854   -3.67615314702897    2.14448924437743
H        -0.26761115202084   -1.24732150681684   -2.09597184595761
22
 energy: -32.355987666558 gnorm: 0.001097430674 xtb: 6.4.0 (f63f532)
C         0.74562244621907    0.39203803924276   -1.13407493746577
C         0.97955998445398    1.01122072899761    0.08471059729951
C         0.38987178429309    0.46912874749180    1.21641564755415
N        -0.37551753275730   -0.60937944766952    1.19167483284457
C        -0.59378258592694   -1.20766721912302    0.02786441189166
C        -1.41346076280796   -2.47800877032683    0.07678481503703
N        -0.53712146624646   -3.62388785151247    0.08102613120833
C        -0.13124558784124   -4.32270758860632   -1.01091435358538
C         0.77526522557206   -5.26825393248684   -0.61349022898635
C         0.93398467230875   -5.12534736993447    0.77917927531805
C         0.11683314697064   -4.10028663850972    1.17225516754267
C        -0.05475333813145   -0.73791947287995   -1.16577017469187
H         1.18162049771664    0.78208961012396   -2.04255433100161
H         1.60175000950223    1.88958343982776    0.15526328265358
H         0.53162409754359    0.91268998057459    2.19381379606850
H        -2.07376490924064   -2.54150753985265   -0.79124765853471
H        -2.00526574542357   -2.47725478668803    0.99482663925308
H        -0.52550874347123   -4.11192662747418   -1.98618272010709
H         1.26806250774687   -5.98420385812067   -1.24306442542381
H         1.57124739757339   -5.71133483117593    1.41311884984189
H        -0.04931691648897   -3.67614849967571    2.14284114375459
H        -0.25756418156483   -1.24844611222245   -2.09436576047091
22
 energy: -32.356007468739 gnorm: 0.001903689665 xtb: 6.4.0 (f63f532)
C         0.74858873893822    0.39510939971740   -1.13204387505571
C         0.97436339096767    1.01951528393264    0.08551988977016
C         0.38346967530118    0.47721378687634    1.21653843254476
N        -0.37622820936760   -0.60518405770215    1.19273454759989
C        -0.58783061375608   -1.20810816077578    0.02974801533667
C        -1.40828659983759   -2.47710737947790    0.07760541655865
N        -0.53529985855872   -3.62603493060824    0.08000640032035
C        -0.13654329354564   -4.32946040676089   -1.01168561657574
C         0.76685938543144   -5.27766797867355   -0.61541913504487
C         0.93421596339061   -5.12998255590830    0.77592766345142
C         0.12125407418245   -4.10155285585736    1.16968959003929
C        -0.04547892773192   -0.73967743552141   -1.16255439527707
H         1.18570587843449    0.78477669462164   -2.04049643642427
H         1.59120107561456    1.90183392148912    0.15567130287121
H         0.51963915023418    0.92355110197108    2.19331646427192
H        -2.06949206707370   -2.53856152083640   -0.79001560778612
H        -2.00000033950798   -2.47686334739154    0.99584234345979
H        -0.53494122125952   -4.12041138774442   -1.98507537704834
H         1.25474960582995   -5.99691957289965   -1.24516424315337
H         1.57369799294059   -5.71497821735141    1.40933983908327
H        -0.03960503021059   -3.67392095981725    2.13970324592246
H        -0.24189877041627   -1.25309942128226   -2.09107846486425
22
 energy: -32.356035168164 gnorm: 0.002159701004 xtb: 6.4.0 (f63f532)
C         0.75369114361487    0.39640695592379   -1.12838054854874
C         0.96853407134470    1.02787374552586    0.08741687888757
C         0.37465736025821    0.48686101978825    1.21733194513507
N        -0.38084066485281   -0.59851372401848    1.19382555847501
C        -0.58290802737600   -1.20766491019379    0.03222245906099
C        -1.40322363906548   -2.47639746768769    0.07876147167951
N        -0.53303727772085   -3.62760513825340    0.07866422269110
C        -0.14545878542500   -4.33776387533476   -1.01273079751366
C         0.75832396776456   -5.28684560576976   -0.61851778402885
C         0.93563177693296   -5.13364213770229    0.77082284002596
C         0.13008250621423   -4.10013560456769    1.16575576540914
C        -0.03356923108859   -0.74319305999280   -1.15828455659150
H         1.19471427819640    0.78366571777488   -2.03634047333579
H         1.57837128289030    1.91492511686520    0.15703617869919
H         0.50299044747362    0.93796179216652    2.19292754280293
H        -2.06486661576170   -2.53497567908476   -0.78874590585467
H        -1.99498052275803   -2.47688402620178    0.99708790348028
H        -0.55181341849863   -4.13267320688988   -1.98380727274496
H         1.23858032974898   -6.01085151361913   -1.24846707791463
H         1.57603978104597   -5.71830157871538    1.40265052516191
H        -0.02269748344811   -3.66750554446605    2.13484360338490
H        -0.22008127948987   -1.26227127554712   -2.08596247836064
22
 energy: -32.356074936228 gnorm: 0.001863922200 xtb: 6.4.0 (f63f532)
C         0.76344356655732    0.39630115427492   -1.12281424587072
C         0.96028941880134    1.03916623113665    0.09035409370681
C         0.35978993379940    0.50153675467352    1.21866333458022
N        -0.38902254345928   -0.58833583806325    1.19497538831175
C        -0.57636041683303   -1.20656640068561    0.03565312583698
C        -1.39673236740685   -2.47558975999487    0.08057027322587
N        -0.53003547454146   -3.62920652460616    0.07704809805008
C        -0.15919027029840   -4.34931954835874   -1.01376451016914
C         0.74464210913943   -5.30014268473878   -0.62329061313227
C         0.93818862080012   -5.13837980402585    0.76289698359640
C         0.14285301936900   -4.09777642789101    1.15986585979423
C        -0.01559752283423   -0.74895273712059   -1.15233424563436
H         1.20839862998842    0.78072721614238   -2.02932391070435
H         1.56123453216968    1.93232180159857    0.15914714280064
H         0.47759137495694    0.95944237836980    2.19244618853718
H        -2.05856710456345   -2.53026084333293   -0.78701634452663
H        -1.98877548504030   -2.47644274308272    0.99885241083176
H        -0.57572049765445   -4.14921143983291   -1.98150584545775
H         1.21392712684137   -6.03092086619468   -1.25374382430824
H         1.58282958904388   -5.72185839039208    1.39168398311742
H         0.00348061956929   -3.65732526347443    2.12755029188281
H        -0.18852685840499   -1.27673626440145   -2.07780363446858
22
 energy: -32.356148963089 gnorm: 0.003982328763 xtb: 6.4.0 (f63f532)
C         0.79150106102280    0.39656686175150   -1.10521492499145
C         0.93422613244304    1.07326403376913    0.09921291470181
C         0.31255100773846    0.54717367167549    1.22177899678725
N        -0.41521542818749   -0.55659397836967    1.19737397420844
C        -0.55684635306871   -1.20249877242052    0.04586098910868
C        -1.37660535701507   -2.47342111202980    0.08648874381653
N        -0.51849109691963   -3.63227441534633    0.07254462468934
C        -0.20057157974199   -4.38345589908009   -1.01596240156381