22
 energy: -32.356902693088 gnorm: 0.000123945536 xtb: 6.4.0 (f63f532)
C         1.12288445681835    0.18624281253263   -0.86796154413550
C         0.80349470028604    1.18718851206420    0.03771460069619
C        -0.17811307470017    0.92445082268113    0.98047297926893
N        -0.82199431489828   -0.22842877153638    1.05818598087028
C        -0.52055547985886   -1.18450750194672    0.18901042636391
C        -1.30496809832286   -2.47112355432281    0.32379378041773
N        -0.49373997466963   -3.63754017880323    0.10688719129475
C        -0.44359556034649   -4.37616105900921   -1.03223560672687
C         0.48975377697083   -5.36501800035723   -0.87337887362198
C         1.03375688490465   -5.21227533220394    0.41699985770920
C         0.40897381310127   -4.13792681171075    0.99048055491432
C         0.44965638300734   -1.02152204858708   -0.79474428823624
H         1.88285778809263    0.34398493563505   -1.61921598380844
H         1.30310077098879    2.14263111084971    0.01500745413246
H        -0.46644392506349    1.66476339501688    1.71548093039890
H        -2.11717432661591   -2.46983736293638   -0.41015104655407
H        -1.74498399242903   -2.49629272991353    1.32463701899676
H        -1.07966675186019   -4.15438306347733   -1.86742193301272
H         0.75334395610710   -6.11537019317549   -1.59375617003329
H         1.79139503330473   -5.82407637509861    0.86739729026966
H         0.53818640711020   -3.69591407368058    1.95914722533353
H         0.67197152807304   -1.82641453202005   -1.47823984453714
