      -----------------------------------------------------------      
     |                   =====================                   |     
     |                           x T B                           |     
     |                   =====================                   |     
     |                         S. Grimme                         |     
     |          Mulliken Center for Theoretical Chemistry        |     
     |                    University of Bonn                     |     
      -----------------------------------------------------------      

   * xtb version 6.4.1 (1a32961) compiled by 'knkr256@seskscpg007.prim.scp' on 2021-10-19

   xtb is free software: you can redistribute it and/or modify it under
   the terms of the GNU Lesser General Public License as published by
   the Free Software Foundation, either version 3 of the License, or
   (at your option) any later version.
   
   xtb is distributed in the hope that it will be useful,
   but WITHOUT ANY WARRANTY; without even the implied warranty of
   MERCHANTABILITY or FITNESS FOR A PARTICULAR PURPOSE.  See the
   GNU Lesser General Public License for more details.
   
   Cite this work as:
   * C. Bannwarth, E. Caldeweyher, S. Ehlert, A. Hansen, P. Pracht,
     J. Seibert, S. Spicher, S. Grimme, WIREs Comput. Mol. Sci., 2020, 11,
     e01493. DOI: 10.1002/wcms.1493
   
   for GFN2-xTB:
   * C. Bannwarth, S. Ehlert and S. Grimme., J. Chem. Theory Comput., 2019,
     15, 1652-1671. DOI: 10.1021/acs.jctc.8b01176
   for GFN1-xTB:
   * S. Grimme, C. Bannwarth, P. Shushkov, J. Chem. Theory Comput., 2017,
     13, 1989-2009. DOI: 10.1021/acs.jctc.7b00118
   for GFN0-xTB:
   * P. Pracht, E. Caldeweyher, S. Ehlert, S. Grimme, ChemRxiv, 2019, preprint.
     DOI: 10.26434/chemrxiv.8326202.v1
   for GFN-FF:
   * S. Spicher and S. Grimme, Angew. Chem. Int. Ed., 2020, 59, 15665-15673.
     DOI: 10.1002/anie.202004239
   
   for ALPB and GBSA implicit solvation:
   * S. Ehlert, M. Stahn, S. Spicher, S. Grimme, J. Chem. Theory Comput.,
     2021, 17, 4250-4261. DOI: 10.1021/acs.jctc.1c00471
   
   for DFT-D4:
   * E. Caldeweyher, C. Bannwarth and S. Grimme, J. Chem. Phys., 2017,
     147, 034112. DOI: 10.1063/1.4993215
   * E. Caldeweyher, S. Ehlert, A. Hansen, H. Neugebauer, S. Spicher,
     C. Bannwarth and S. Grimme, J. Chem. Phys., 2019, 150, 154122.
     DOI: 10.1063/1.5090222
   * E. Caldeweyher, J.-M. Mewes, S. Ehlert and S. Grimme, Phys. Chem. Chem. Phys.
     2020, 22, 8499-8512. DOI: 10.1039/D0CP00502A
   
   for sTDA-xTB:
   * S. Grimme and C. Bannwarth, J. Chem. Phys., 2016, 145, 054103.
     DOI: 10.1063/1.4959605
   
   in the mass-spec context:
   * V. Asgeirsson, C. Bauer and S. Grimme, Chem. Sci., 2017, 8, 4879.
     DOI: 10.1039/c7sc00601b
   * J. Koopman and S. Grimme, ACS Omega 2019, 4, 12, 15120-15133.
     DOI: 10.1021/acsomega.9b02011
   
   for metadynamics refer to:
   * S. Grimme, J. Chem. Theory Comput., 2019, 155, 2847-2862
     DOI: 10.1021/acs.jctc.9b00143
   
   for SPH calculations refer to:
   * S. Spicher and S. Grimme, J. Chem. Theory Comput., 2021, 17, 1701-1714
     DOI: 10.1021/acs.jctc.0c01306
   
   with help from (in alphabetical order)
   P. Atkinson, C. Bannwarth, F. Bohle, G. Brandenburg, E. Caldeweyher
   M. Checinski, S. Dohm, S. Ehlert, S. Ehrlich, I. Gerasimov, J. Koopman
   C. Lavigne, S. Lehtola, F. März, M. Müller, F. Musil, H. Neugebauer
   J. Pisarek, C. Plett, P. Pracht, J. Seibert, P. Shushkov, S. Spicher
   M. Stahn, M. Steiner, T. Strunk, J. Stückrath, T. Rose, and J. Unsleber
   
 * started run on 2022/01/14 at 13:33:52.492     

           -------------------------------------------------
          |                Calculation Setup                |
           -------------------------------------------------

          program call               : xtb xtbopt.xyz --sp --alpb thf -P 6
          hostname                   : seskscpg007.prim.scp
          coordinate file            : xtbopt.xyz
          omp threads                :                     6
          number of atoms            :                    99
          number of electrons        :                   266
          charge                     :                     0
          spin                       :                   0.0
          first test random number   :      0.89973469845832

   ID    Z sym.   atoms
    1    7 N      1, 11
    2    6 C      2-6, 10, 12-15, 23, 24, 28, 32, 34, 38, 44, 45, 49, 53, 55,
                  59, 65, 66, 70, 74, 76, 80, 86-89, 91, 93, 95
    3    1 H      7-9, 16-18, 20, 25-27, 29-31, 35-37, 39-41, 46-48, 50-52,
                  56-58, 60-62, 67-69, 71-73, 77-79, 81-85, 92, 96-99
    4   77 Ir     19
    5    5 B      21, 42, 63
    6    8 O      22, 33, 43, 54, 64, 75, 90, 94

molecular fragmentation (1/2 indicates fragments):
111111111111111111111111111111111111111111111111111111111111111111111111
111111111111122222222222222
# atoms in fragment 1/2:    85    14
 fragment masses (1/2) :      730.32      121.11
CMA distance (Bohr)    :   8.956
constraining FC (au)   :  0.0500

           -------------------------------------------------
          |                 G F N 2 - x T B                 |
           -------------------------------------------------

        Reference                      10.1021/acs.jctc.8b01176
      * Hamiltonian:
        H0-scaling (s, p, d)           1.850000    2.230000    2.230000
        zeta-weighting                 0.500000
      * Dispersion:
        s8                             2.700000
        a1                             0.520000
        a2                             5.000000
        s9                             5.000000
      * Repulsion:
        kExp                           1.500000    1.000000
        rExp                           1.000000
      * Coulomb:
        alpha                          2.000000
        third order                    shell-resolved
        anisotropic                    true
        a3                             3.000000
        a5                             4.000000
        cn-shift                       1.200000
        cn-exp                         4.000000
        max-rad                        5.000000

      * Solvation model:               ALPB
        Solvent                        thf
        Parameter file                 internal GFN2-xTB/ALPB
        Dielectric constant                7.6000E+00
        Reference state                gsolv [1 M gas/solution]
        Free energy shift                  5.3248E-03 Eh       3.3414E+00 kcal/mol
        Temperature                        2.9815E+02 K
        Density                            8.8300E-01 kg/L
        Solvent mass                       7.2106E+01 g/mol
        Interaction kernel             P16
        Born radius scaling (c1)           1.7311E+00
        Born radii integrator          GBOBC
        Born offset                        0.0000E+00 a0       0.0000E+00 AA
        H-bond correction              true
        Ion screening                  false
        Surface tension                    1.0000E-05 Eh       1.5569E+01 dyn/cm
        Grid points                               230 per atom
q/qsh data taken from xtbrestart
CAMM data taken from xtbrestart

          ...................................................
          :                      SETUP                      :
          :.................................................:
          :  # basis functions                 252          :
          :  # atomic orbitals                 251          :
          :  # shells                          149          :
          :  # electrons                       266          :
          :  max. iterations                   250          :
          :  Hamiltonian                  GFN2-xTB          :
          :  restarted?                       true          :
          :  GBSA solvation                   true          :
          :  PC potential                    false          :
          :  electronic temp.          300.0000000     K    :
          :  accuracy                    1.0000000          :
          :  -> integral cutoff          0.2500000E+02      :
          :  -> integral neglect         0.1000000E-07      :
          :  -> SCF convergence          0.1000000E-05 Eh   :
          :  -> wf. convergence          0.1000000E-03 e    :
          :  Broyden damping             0.4000000          :
          ...................................................

 iter      E             dE          RMSdq      gap      omega  full diag
   1   -148.5467113 -0.148547E+03  0.327E-05    0.90       0.0  T
   2   -148.5467113 -0.193268E-11  0.269E-05    0.90     373.1  T
   3   -148.5467113 -0.505906E-11  0.232E-05    0.90     433.5  T

   *** convergence criteria satisfied after 3 iterations ***

         #    Occupation            Energy/Eh            Energy/eV
      -------------------------------------------------------------
         1        2.0000           -0.7390696             -20.1111
       ...           ...                  ...                  ...
       127        2.0000           -0.3648475              -9.9280
       128        2.0000           -0.3483735              -9.4797
       129        2.0000           -0.3317376              -9.0270
       130        2.0000           -0.3228712              -8.7858
       131        2.0000           -0.3206768              -8.7261
       132        2.0000           -0.3119352              -8.4882
       133        2.0000           -0.3083392              -8.3903 (HOMO)
       134                         -0.2752183              -7.4891 (LUMO)
       135                         -0.2471469              -6.7252
       136                         -0.2451380              -6.6705
       137                         -0.2165506              -5.8926
       138                         -0.2073486              -5.6422
       ...                                ...                  ...
       251                          3.7907051             103.1503
      -------------------------------------------------------------
                  HL-Gap            0.0331209 Eh            0.9013 eV
             Fermi-level           -0.2917681 Eh           -7.9394 eV

 SCC (total)                   0 d,  0 h,  0 min,  0.086 sec
 SCC setup                      ...        0 min,  0.002 sec (  2.885%)
 Dispersion                     ...        0 min,  0.003 sec (  3.371%)
 classical contributions        ...        0 min,  0.000 sec (  0.182%)
 integral evaluation            ...        0 min,  0.011 sec ( 12.221%)
 iterations                     ...        0 min,  0.036 sec ( 41.573%)
 molecular gradient             ...        0 min,  0.033 sec ( 38.831%)
 printout                       ...        0 min,  0.001 sec (  0.849%)

         :::::::::::::::::::::::::::::::::::::::::::::::::::::
         ::                     SUMMARY                     ::
         :::::::::::::::::::::::::::::::::::::::::::::::::::::
         :: total energy            -146.728573923259 Eh    ::
         :: total w/o Gsasa/hb      -146.689422011181 Eh    ::
         :: gradient norm              0.034670146345 Eh/a0 ::
         :: HOMO-LUMO gap              0.901265666379 eV    ::
         ::.................................................::
         :: SCC energy              -148.546711295035 Eh    ::
         :: -> isotropic ES            0.268001017130 Eh    ::
         :: -> anisotropic ES          0.010161209269 Eh    ::
         :: -> anisotropic XC          0.038543102093 Eh    ::
         :: -> dispersion             -0.138826491642 Eh    ::
         :: -> Gsolv                  -0.050228737722 Eh    ::
         ::    -> Gelec               -0.011076825644 Eh    ::
         ::    -> Gsasa               -0.041821776099 Eh    ::
         ::    -> Ghb                 -0.002654951423 Eh    ::
         ::    -> Gshift               0.005324815444 Eh    ::
         :: repulsion energy           1.809760323578 Eh    ::
         :: add. restraining           0.000000000000 Eh    ::
         :: total charge               0.000000001221 e     ::
         :::::::::::::::::::::::::::::::::::::::::::::::::::::

           -------------------------------------------------
          |                Property Printout                |
           -------------------------------------------------

    * Orbital Energies and Occupations

         #    Occupation            Energy/Eh            Energy/eV
      -------------------------------------------------------------
         1        2.0000           -0.7390696             -20.1111
       ...           ...                  ...                  ...
       121        2.0000           -0.4002578             -10.8916
       122        2.0000           -0.3883784             -10.5683
       123        2.0000           -0.3866042             -10.5200
       124        2.0000           -0.3853765             -10.4866
       125        2.0000           -0.3821167             -10.3979
       126        2.0000           -0.3810833             -10.3698
       127        2.0000           -0.3648475              -9.9280
       128        2.0000           -0.3483735              -9.4797
       129        2.0000           -0.3317376              -9.0270
       130        2.0000           -0.3228712              -8.7858
       131        2.0000           -0.3206768              -8.7261
       132        2.0000           -0.3119352              -8.4882
       133        2.0000           -0.3083392              -8.3903 (HOMO)
       134                         -0.2752183              -7.4891 (LUMO)
       135                         -0.2471469              -6.7252
       136                         -0.2451380              -6.6705
       137                         -0.2165506              -5.8926
       138                         -0.2073486              -5.6422
       139                         -0.2035558              -5.5390
       140                         -0.1836544              -4.9975
       141                         -0.1500838              -4.0840
       142                         -0.1258637              -3.4249
       143                         -0.1234652              -3.3597
       144                         -0.1114442              -3.0326
       ...                                ...                  ...
       251                          3.7907051             103.1503
      -------------------------------------------------------------
                  HL-Gap            0.0331209 Eh            0.9013 eV
             Fermi-level           -0.2917681 Eh           -7.9394 eV

     #   Z          covCN         q      C6AA      α(0)
     1   7 N        2.564    -0.114    23.507     7.200
     2   6 C        2.957     0.079    26.233     8.401
     3   6 C        2.918    -0.043    29.072     8.842
     4   6 C        2.924    -0.023    28.574     8.766
     5   6 C        2.915    -0.044    29.089     8.844
     6   6 C        2.894     0.047    26.935     8.509
     7   1 H        0.926     0.055     2.263     2.353
     8   1 H        0.926     0.057     2.233     2.337
     9   1 H        0.926     0.047     2.363     2.404
    10   6 C        2.956     0.076    26.294     8.411
    11   7 N        2.570    -0.120    23.630     7.219
    12   6 C        2.891     0.041    27.090     8.533
    13   6 C        2.915    -0.046    29.140     8.852
    14   6 C        2.922    -0.026    28.648     8.777
    15   6 C        2.919    -0.047    29.162     8.855
    16   1 H        0.926     0.046     2.376     2.410
    17   1 H        0.926     0.052     2.299     2.371
    18   1 H        0.926     0.078     2.002     2.212
    19  77 Ir       5.974    -0.154   388.018    36.427
    20   1 H        0.977     0.106     1.726     2.053
    21   5 B        2.632     0.403    16.014     6.759
    22   8 O        1.638    -0.406    20.965     6.181
    23   6 C        3.835     0.129    18.459     6.112
    24   6 C        3.755    -0.122    22.899     6.823
    25   1 H        0.925     0.054     2.268     2.355
    26   1 H        0.925     0.046     2.375     2.410
    27   1 H        0.925     0.052     2.299     2.371
    28   6 C        3.754    -0.110    22.666     6.789
    29   1 H        0.925     0.048     2.340     2.392
    30   1 H        0.925     0.042     2.420     2.433
    31   1 H        0.925     0.028     2.616     2.529
    32   6 C        3.841     0.130    18.446     6.110
    33   8 O        1.637    -0.400    20.861     6.165
    34   6 C        3.755    -0.123    22.907     6.824
    35   1 H        0.925     0.053     2.281     2.362
    36   1 H        0.925     0.047     2.362     2.403
    37   1 H        0.925     0.050     2.317     2.380
    38   6 C        3.754    -0.121    22.874     6.820
    39   1 H        0.925     0.047     2.355     2.400
    40   1 H        0.925     0.054     2.271     2.356
    41   1 H        0.925     0.046     2.372     2.408
    42   5 B        2.624     0.400    16.092     6.783
    43   8 O        1.637    -0.381    20.503     6.112
    44   6 C        3.837     0.128    18.479     6.116
    45   6 C        3.754    -0.127    22.999     6.838
    46   1 H        0.925     0.056     2.243     2.342
    47   1 H        0.925     0.057     2.238     2.339
    48   1 H        0.925     0.050     2.316     2.380
    49   6 C        3.755    -0.123    22.907     6.825
    50   1 H        0.925     0.049     2.326     2.385
    51   1 H        0.925     0.047     2.354     2.399
    52   1 H        0.925     0.052     2.291     2.367
    53   6 C        3.832     0.127    18.497     6.119
    54   8 O        1.637    -0.381    20.498     6.111
    55   6 C        3.755    -0.125    22.958     6.832
    56   1 H        0.925     0.055     2.259     2.350
    57   1 H        0.925     0.054     2.265     2.354
    58   1 H        0.925     0.049     2.333     2.388
    59   6 C        3.755    -0.126    22.969     6.834
    60   1 H        0.925     0.046     2.375     2.410
    61   1 H        0.925     0.054     2.270     2.356
    62   1 H        0.925     0.050     2.315     2.379
    63   5 B        2.624     0.400    16.086     6.781
    64   8 O        1.637    -0.379    20.454     6.105
    65   6 C        3.831     0.125    18.534     6.125
    66   6 C        3.755    -0.132    23.094     6.852
    67   1 H        0.925     0.060     2.198     2.319
    68   1 H        0.925     0.055     2.264     2.353
    69   1 H        0.925     0.051     2.309     2.376
    70   6 C        3.755    -0.130    23.045     6.845
    71   1 H        0.925     0.061     2.191     2.315
    72   1 H        0.925     0.051     2.308     2.376
    73   1 H        0.925     0.052     2.297     2.370
    74   6 C        3.829     0.127    18.503     6.121
    75   8 O        1.637    -0.377    20.413     6.099
    76   6 C        3.755    -0.125    22.955     6.832
    77   1 H        0.925     0.051     2.304     2.374
    78   1 H        0.925     0.054     2.266     2.354
    79   1 H        0.925     0.056     2.249     2.345
    80   6 C        3.755    -0.122    22.904     6.824
    81   1 H        0.925     0.041     2.440     2.443
    82   1 H        0.925     0.049     2.331     2.387
    83   1 H        0.925     0.055     2.259     2.350
    84   1 H        0.926     0.054     2.275     2.359
    85   1 H        0.926     0.050     2.326     2.385
    86   6 C        2.823    -0.054    29.321     8.873
    87   6 C        2.974     0.117    25.425     8.271
    88   6 C        2.933    -0.049    29.205     8.863
    89   6 C        2.974     0.113    25.500     8.283
    90   8 O        1.709    -0.318    19.303     5.932
    91   6 C        2.927    -0.047    29.165     8.856
    92   1 H        0.926     0.058     2.224     2.332
    93   6 C        2.912    -0.072    29.797     8.951
    94   8 O        1.708    -0.318    19.300     5.932
    95   6 C        3.764     0.231    17.046     5.885
    96   1 H        0.926     0.056     2.252     2.346
    97   1 H        0.926     0.058     2.226     2.333
    98   1 H        0.923     0.031     2.576     2.510
    99   1 H        0.923     0.042     2.427     2.436

 Mol. C6AA /au·bohr⁶  :     105196.111367
 Mol. C8AA /au·bohr⁸  :    2799874.285095
 Mol. α(0) /au        :        501.673570


Wiberg/Mayer (AO) data.
largest (>0.10) Wiberg bond orders for each atom

 ---------------------------------------------------------------------------
     #   Z sym  total        # sym  WBO       # sym  WBO       # sym  WBO
 ---------------------------------------------------------------------------
     1   7 N    3.409 --     6 C    1.390     2 C    1.315    19 Ir   0.443
     2   6 C    3.979 --     3 C    1.350     1 N    1.315    10 C    1.089
     3   6 C    3.988 --     4 C    1.482     2 C    1.350     9 H    0.962
                             6 C    0.106
     4   6 C    3.985 --     3 C    1.482     5 C    1.384    84 H    0.969
     5   6 C    3.979 --     6 C    1.459     4 C    1.384     8 H    0.968
     6   6 C    3.978 --     5 C    1.459     1 N    1.390     7 H    0.957
                             3 C    0.106
     7   1 H    0.997 --     6 C    0.957
     8   1 H    0.996 --     5 C    0.968
     9   1 H    0.997 --     3 C    0.962
    10   6 C    3.979 --    15 C    1.356    11 N    1.307     2 C    1.089
    11   7 N    3.415 --    12 C    1.390    10 C    1.307    19 Ir   0.436
    12   6 C    3.972 --    13 C    1.454    11 N    1.390    18 H    0.947
                            15 C    0.105
    13   6 C    3.982 --    12 C    1.454    14 C    1.389    17 H    0.969
    14   6 C    3.982 --    15 C    1.476    13 C    1.389    85 H    0.969
    15   6 C    3.989 --    14 C    1.476    10 C    1.356    16 H    0.962
                            12 C    0.105
    16   1 H    0.997 --    15 C    0.962
    17   1 H    0.997 --    13 C    0.969
    18   1 H    0.994 --    12 C    0.947
    19  77 Ir   5.181 --    63 B    0.863    42 B    0.862    21 B    0.743
                            86 C    0.570    20 H    0.536     1 N    0.443
                            11 N    0.436
    20   1 H    0.987 --    19 Ir   0.536    86 C    0.347
    21   5 B    3.283 --    33 O    1.114    22 O    1.094    19 Ir   0.743
    22   8 O    2.196 --    21 B    1.094    23 C    0.942
    23   6 C    3.942 --    24 C    0.996    28 C    0.990    22 O    0.942
                            32 C    0.941
    24   6 C    3.993 --    23 C    0.996    26 H    0.984    27 H    0.983
                            25 H    0.983
    25   1 H    0.997 --    24 C    0.983
    26   1 H    0.997 --    24 C    0.984
    27   1 H    0.997 --    24 C    0.983
    28   6 C    3.996 --    23 C    0.990    31 H    0.985    30 H    0.984
                            29 H    0.984
    29   1 H    0.997 --    28 C    0.984
    30   1 H    0.998 --    28 C    0.984
    31   1 H    0.999 --    28 C    0.985
    32   6 C    3.939 --    38 C    0.997    34 C    0.991    23 C    0.941
                            33 O    0.939
    33   8 O    2.204 --    21 B    1.114    32 C    0.939
    34   6 C    3.994 --    32 C    0.991    36 H    0.984    37 H    0.982
                            35 H    0.981
    35   1 H    0.997 --    34 C    0.981
    36   1 H    0.997 --    34 C    0.984
    37   1 H    0.997 --    34 C    0.982
    38   6 C    3.994 --    32 C    0.997    41 H    0.984    39 H    0.983
                            40 H    0.983
    39   1 H    0.998 --    38 C    0.983
    40   1 H    0.997 --    38 C    0.983
    41   1 H    0.997 --    38 C    0.984
    42   5 B    3.337 --    43 O    1.118    54 O    1.111    19 Ir   0.862
    43   8 O    2.227 --    42 B    1.118    44 C    0.935
    44   6 C    3.936 --    45 C    0.997    49 C    0.991    53 C    0.939
                            43 O    0.935
    45   6 C    3.992 --    44 C    0.997    48 H    0.983    46 H    0.982
                            47 H    0.982
    46   1 H    0.997 --    45 C    0.982
    47   1 H    0.997 --    45 C    0.982
    48   1 H    0.996 --    45 C    0.983
    49   6 C    3.994 --    44 C    0.991    50 H    0.983    51 H    0.982
                            52 H    0.980
    50   1 H    0.997 --    49 C    0.983
    51   1 H    0.997 --    49 C    0.982
    52   1 H    0.997 --    49 C    0.980
    53   6 C    3.937 --    55 C    0.996    59 C    0.992    44 C    0.939
                            54 O    0.934
    54   8 O    2.230 --    42 B    1.111    53 C    0.934
    55   6 C    3.993 --    53 C    0.996    58 H    0.983    57 H    0.983
                            56 H    0.982
    56   1 H    0.997 --    55 C    0.982
    57   1 H    0.997 --    55 C    0.983
    58   1 H    0.996 --    55 C    0.983
    59   6 C    3.994 --    53 C    0.992    62 H    0.983    61 H    0.983
                            60 H    0.982
    60   1 H    0.998 --    59 C    0.982
    61   1 H    0.996 --    59 C    0.983
    62   1 H    0.997 --    59 C    0.983
    63   5 B    3.366 --    75 O    1.122    64 O    1.109    19 Ir   0.863
    64   8 O    2.227 --    63 B    1.109    65 C    0.937
    65   6 C    3.937 --    70 C    0.997    66 C    0.991    74 C    0.938
                            64 O    0.937
    66   6 C    3.992 --    65 C    0.991    69 H    0.983    68 H    0.982
                            67 H    0.979
    67   1 H    0.996 --    66 C    0.979
    68   1 H    0.997 --    66 C    0.982
    69   1 H    0.996 --    66 C    0.983
    70   6 C    3.992 --    65 C    0.997    72 H    0.983    73 H    0.982
                            71 H    0.982
    71   1 H    0.996 --    70 C    0.982
    72   1 H    0.996 --    70 C    0.983
    73   1 H    0.997 --    70 C    0.982
    74   6 C    3.935 --    76 C    0.996    80 C    0.991    65 C    0.938
                            75 O    0.936
    75   8 O    2.238 --    63 B    1.122    74 C    0.936
    76   6 C    3.992 --    74 C    0.996    77 H    0.983    78 H    0.982
                            79 H    0.981
    77   1 H    0.996 --    76 C    0.983
    78   1 H    0.997 --    76 C    0.982
    79   1 H    0.997 --    76 C    0.981
    80   6 C    3.995 --    74 C    0.991    81 H    0.984    83 H    0.983
                            82 H    0.983
    81   1 H    0.998 --    80 C    0.984
    82   1 H    0.997 --    80 C    0.983
    83   1 H    0.996 --    80 C    0.983
    84   1 H    0.996 --     4 C    0.969
    85   1 H    0.996 --    14 C    0.969
    86   6 C    3.935 --    87 C    1.374    88 C    1.348    19 Ir   0.570
                            20 H    0.347
    87   6 C    3.908 --    86 C    1.374    89 C    1.311    90 O    0.985
    88   6 C    3.987 --    91 C    1.474    86 C    1.348    92 H    0.961
    89   6 C    3.911 --    93 C    1.413    87 C    1.311    94 O    0.999
    90   8 O    2.166 --    95 C    0.986    87 C    0.985
    91   6 C    3.986 --    88 C    1.474    93 C    1.391    96 H    0.968
    92   1 H    0.996 --    88 C    0.961
    93   6 C    3.976 --    89 C    1.413    91 C    1.391    97 H    0.967
    94   8 O    2.164 --    89 C    0.999    95 C    0.978
    95   6 C    3.925 --    90 O    0.986    94 O    0.978    99 H    0.961
                            98 H    0.961
    96   1 H    0.995 --    91 C    0.968
    97   1 H    0.995 --    93 C    0.967
    98   1 H    0.999 --    95 C    0.961
    99   1 H    0.998 --    95 C    0.961
 ---------------------------------------------------------------------------

Topologies differ in total number of bonds
Writing topology from bond orders to xtbtopo.mol

molecular dipole:
                 x           y           z       tot (Debye)
 q only:        0.859       0.622      -1.132
   full:       -0.667       0.702      -1.503       4.543
molecular quadrupole (traceless):
                xx          xy          yy          xz          yz          zz
 q only:       15.319      -1.420      -3.108      11.679      16.082     -12.211
  q+dip:       17.914       1.466      -3.182       8.731      19.506     -14.732
   full:       15.857       2.481      -1.748       6.985      16.577     -14.110


           -------------------------------------------------
          | TOTAL ENERGY             -146.728573923259 Eh   |
          | GRADIENT NORM               0.034670146345 Eh/α |
          | HOMO-LUMO GAP               0.901265666379 eV   |
           -------------------------------------------------

------------------------------------------------------------------------
 * finished run on 2022/01/14 at 13:33:52.612     
------------------------------------------------------------------------
 total:
 * wall-time:     0 d,  0 h,  0 min,  0.120 sec
 *  cpu-time:     0 d,  0 h,  0 min,  0.690 sec
 * ratio c/w:     5.768 speedup
 SCF:
 * wall-time:     0 d,  0 h,  0 min,  0.088 sec
 *  cpu-time:     0 d,  0 h,  0 min,  0.520 sec
 * ratio c/w:     5.934 speedup

