12
 energy: -23.427561913533 gnorm: 0.038573162299 xtb: 6.4.1 (1a32961)
C        -2.35475000000000   -1.89489000000000    0.00344000000000
C        -3.24930000000000   -0.82557000000000    0.01012000000000
C        -2.76162000000000    0.47762000000000   -0.00054000000000
F        -3.62464000000000    1.50184000000000    0.00442000000000
C        -1.39560000000000    0.73582000000000   -0.01499000000000
C        -0.50531000000000   -0.33583000000000   -0.01786000000000
I         1.54178000000000    0.02351000000000   -0.02712000000000
C        -0.97891000000000   -1.65074000000000   -0.01092000000000
H        -2.72660000000000   -2.91642000000000    0.01062000000000
H        -4.32119000000000   -0.99760000000000    0.02399000000000
H        -1.05347000000000    1.76532000000000   -0.02209000000000
H        -0.29057000000000   -2.49253000000000   -0.01508000000000
12
 energy: -23.428955988222 gnorm: 0.013230762969 xtb: 6.4.1 (1a32961)
C        -2.35622853516605   -1.88637065362310    0.00349877192484
C        -3.25180416089191   -0.82907886012398    0.00894059843101
C        -2.75927192759462    0.46522713828036   -0.00054215736869
F        -3.62188602998203    1.49760191242141    0.00373024845774
C        -1.39979954518075    0.72766031017534   -0.01265152704439
C        -0.51909952111739   -0.34247317972964   -0.01503228459627
I         1.57438943150024    0.03323148237196   -0.03351421773077
C        -0.98986545506599   -1.64786954050919   -0.00857023404451
H        -2.72286018289327   -2.90171221299698    0.00994536650065
H        -4.31867159114433   -0.99763750024745    0.02135450404805
H        -1.05488765692084    1.75164317829541   -0.01997624874157
H        -0.30019482554307   -2.47969207431415   -0.01319281983608
12
 energy: -23.429118114806 gnorm: 0.005166028820 xtb: 6.4.1 (1a32961)
C        -2.35356978373903   -1.88285936459738    0.00411652168811
C        -3.25220224386734   -0.83055503611762    0.00910704598359
C        -2.75640619080945    0.46036489273791    0.00022770690342
F        -3.61960600083160    1.49811473363358    0.00452496799029
C        -1.39953261757681    0.72821368409801   -0.01301497523596
C        -0.52687388233644   -0.34356157230237   -0.01765851519742
I         1.56249929638700    0.02428355382639   -0.03205844981761
C        -0.98947850601725   -1.64651526078593   -0.00895887446874
H        -2.71706697843838   -2.89694525051101    0.01057481663115
H        -4.31717520671683   -0.99717544451568    0.02027366467825
H        -1.05375891518388    1.74981868115566   -0.02009049231189
H        -0.29700897086997   -2.47265361662155   -0.01305341684320
12
 energy: -23.429138158843 gnorm: 0.002156038052 xtb: 6.4.1 (1a32961)
C        -2.35402093715722   -1.88352521438616    0.00363803635237
C        -3.25355982815890   -0.83113182128578    0.00841525892956
C        -2.75528861707820    0.45884821785507   -0.00031666547904
F        -3.61888941476024    1.49936695523857    0.00432562945721
C        -1.39855947035346    0.72940353866125   -0.01220661245406
C        -0.52736848035717   -0.34402638751591   -0.01532927925096
I         1.56156815547756    0.02615884191463   -0.03544646063781
C        -0.98903912505665   -1.64787405221296   -0.00813746399620
H        -2.71748362239418   -2.89821546938693    0.01047058406823
H        -4.31852853304315   -0.99612651664418    0.01934001555325
H        -1.05327798526310    1.75076829581075   -0.01883306849673
H        -0.29573214185529   -2.47311638804836   -0.01192997404582
12
 energy: -23.429141922295 gnorm: 0.000679381503 xtb: 6.4.1 (1a32961)
C        -2.35416859813137   -1.88394985553848    0.00429464190474
C        -3.25440480954687   -0.83148802944018    0.00895202200340
C        -2.75484046032712    0.45785778352578    0.00035508505323
F        -3.61923229358967    1.50004737335775    0.00507011884409
C        -1.39838963182740    0.73067084525771   -0.01308346686499
C        -0.52717243995446   -0.34345496329387   -0.01802928797951
I         1.56261471763456    0.02462346994693   -0.03243220872547
C        -0.98868979111133   -1.64808580928150   -0.00883090731536
H        -2.71746353609932   -2.89930643866152    0.01090309864052
H        -4.31948684036251   -0.99557190330710    0.01941226173281
H        -1.05413450196933    1.75216530944256   -0.01990054501780
H        -0.29481181471519   -2.47297778200808   -0.01272081227568
12
 energy: -23.429142444988 gnorm: 0.000292044079 xtb: 6.4.1 (1a32961)
C        -2.35424767805524   -1.88405020564136    0.00359559231841
C        -3.25422779303155   -0.83146594158452    0.00834690221300
C        -2.75462166985772    0.45769540445075   -0.00033212156173
F        -3.61917739674954    1.49990160654680    0.00451270116384
C        -1.39827343564668    0.73048090718034   -0.01221388111107
C        -0.52677620829766   -0.34343031369632   -0.01524571236892
I         1.56263399491007    0.02500138647797   -0.03560044899444
C        -0.98900141562794   -1.64787608067167   -0.00810877382315
H        -2.71749877212624   -2.89939483469076    0.01051525047013
H        -4.31938922872799   -0.99546195616415    0.01918235477486
H        -1.05430371077140    1.75214005385002   -0.01886288008341
H        -0.29529668601810   -2.47301002605709   -0.01179898299753
