      -----------------------------------------------------------      
     |                   =====================                   |     
     |                           x T B                           |     
     |                   =====================                   |     
     |                         S. Grimme                         |     
     |          Mulliken Center for Theoretical Chemistry        |     
     |                    University of Bonn                     |     
      -----------------------------------------------------------      

   * xtb version 6.4.1 (1a32961) compiled by 'knkr256@seskscpg007.prim.scp' on 2021-10-19

   xtb is free software: you can redistribute it and/or modify it under
   the terms of the GNU Lesser General Public License as published by
   the Free Software Foundation, either version 3 of the License, or
   (at your option) any later version.
   
   xtb is distributed in the hope that it will be useful,
   but WITHOUT ANY WARRANTY; without even the implied warranty of
   MERCHANTABILITY or FITNESS FOR A PARTICULAR PURPOSE.  See the
   GNU Lesser General Public License for more details.
   
   Cite this work as:
   * C. Bannwarth, E. Caldeweyher, S. Ehlert, A. Hansen, P. Pracht,
     J. Seibert, S. Spicher, S. Grimme, WIREs Comput. Mol. Sci., 2020, 11,
     e01493. DOI: 10.1002/wcms.1493
   
   for GFN2-xTB:
   * C. Bannwarth, S. Ehlert and S. Grimme., J. Chem. Theory Comput., 2019,
     15, 1652-1671. DOI: 10.1021/acs.jctc.8b01176
   for GFN1-xTB:
   * S. Grimme, C. Bannwarth, P. Shushkov, J. Chem. Theory Comput., 2017,
     13, 1989-2009. DOI: 10.1021/acs.jctc.7b00118
   for GFN0-xTB:
   * P. Pracht, E. Caldeweyher, S. Ehlert, S. Grimme, ChemRxiv, 2019, preprint.
     DOI: 10.26434/chemrxiv.8326202.v1
   for GFN-FF:
   * S. Spicher and S. Grimme, Angew. Chem. Int. Ed., 2020, 59, 15665-15673.
     DOI: 10.1002/anie.202004239
   
   for ALPB and GBSA implicit solvation:
   * S. Ehlert, M. Stahn, S. Spicher, S. Grimme, J. Chem. Theory Comput.,
     2021, 17, 4250-4261. DOI: 10.1021/acs.jctc.1c00471
   
   for DFT-D4:
   * E. Caldeweyher, C. Bannwarth and S. Grimme, J. Chem. Phys., 2017,
     147, 034112. DOI: 10.1063/1.4993215
   * E. Caldeweyher, S. Ehlert, A. Hansen, H. Neugebauer, S. Spicher,
     C. Bannwarth and S. Grimme, J. Chem. Phys., 2019, 150, 154122.
     DOI: 10.1063/1.5090222
   * E. Caldeweyher, J.-M. Mewes, S. Ehlert and S. Grimme, Phys. Chem. Chem. Phys.
     2020, 22, 8499-8512. DOI: 10.1039/D0CP00502A
   
   for sTDA-xTB:
   * S. Grimme and C. Bannwarth, J. Chem. Phys., 2016, 145, 054103.
     DOI: 10.1063/1.4959605
   
   in the mass-spec context:
   * V. Asgeirsson, C. Bauer and S. Grimme, Chem. Sci., 2017, 8, 4879.
     DOI: 10.1039/c7sc00601b
   * J. Koopman and S. Grimme, ACS Omega 2019, 4, 12, 15120-15133.
     DOI: 10.1021/acsomega.9b02011
   
   for metadynamics refer to:
   * S. Grimme, J. Chem. Theory Comput., 2019, 155, 2847-2862
     DOI: 10.1021/acs.jctc.9b00143
   
   for SPH calculations refer to:
   * S. Spicher and S. Grimme, J. Chem. Theory Comput., 2021, 17, 1701-1714
     DOI: 10.1021/acs.jctc.0c01306
   
   with help from (in alphabetical order)
   P. Atkinson, C. Bannwarth, F. Bohle, G. Brandenburg, E. Caldeweyher
   M. Checinski, S. Dohm, S. Ehlert, S. Ehrlich, I. Gerasimov, J. Koopman
   C. Lavigne, S. Lehtola, F. März, M. Müller, F. Musil, H. Neugebauer
   J. Pisarek, C. Plett, P. Pracht, J. Seibert, P. Shushkov, S. Spicher
   M. Stahn, M. Steiner, T. Strunk, J. Stückrath, T. Rose, and J. Unsleber
   
 * started run on 2022/01/14 at 15:24:03.045     

           -------------------------------------------------
          |                Calculation Setup                |
           -------------------------------------------------

          program call               : xtb xtbopt.xyz --sp --alpb thf -P 6
          hostname                   : seskscpg007.prim.scp
          coordinate file            : xtbopt.xyz
          omp threads                :                     6
          number of atoms            :                    96
          number of electrons        :                   262
          charge                     :                     0
          spin                       :                   0.0
          first test random number   :      0.76245359648417

   ID    Z sym.   atoms
    1    7 N      1, 11
    2    6 C      2-6, 10, 12-15, 23, 24, 28, 32, 34, 38, 44, 45, 49, 53, 55,
                  59, 65, 66, 70, 74, 76, 80, 86-89, 91, 94
    3    1 H      7-9, 16-18, 20, 25-27, 29-31, 35-37, 39-41, 46-48, 50-52,
                  56-58, 60-62, 67-69, 71-73, 77-79, 81-85, 90, 92, 96
    4   77 Ir     19
    5    5 B      21, 42, 63
    6    8 O      22, 33, 43, 54, 64, 75
    7    9 F      93
    8   17 Cl     95

molecular fragmentation (1/2 indicates fragments):
111111111111111111111111111111111111111111111111111111111111111111111111
111111111111122222222222
# atoms in fragment 1/2:    85    11
 fragment masses (1/2) :      730.32      129.54
CMA distance (Bohr)    :   9.729
constraining FC (au)   :  0.0500

           -------------------------------------------------
          |                 G F N 2 - x T B                 |
           -------------------------------------------------

        Reference                      10.1021/acs.jctc.8b01176
      * Hamiltonian:
        H0-scaling (s, p, d)           1.850000    2.230000    2.230000
        zeta-weighting                 0.500000
      * Dispersion:
        s8                             2.700000
        a1                             0.520000
        a2                             5.000000
        s9                             5.000000
      * Repulsion:
        kExp                           1.500000    1.000000
        rExp                           1.000000
      * Coulomb:
        alpha                          2.000000
        third order                    shell-resolved
        anisotropic                    true
        a3                             3.000000
        a5                             4.000000
        cn-shift                       1.200000
        cn-exp                         4.000000
        max-rad                        5.000000

      * Solvation model:               ALPB
        Solvent                        thf
        Parameter file                 internal GFN2-xTB/ALPB
        Dielectric constant                7.6000E+00
        Reference state                gsolv [1 M gas/solution]
        Free energy shift                  5.3248E-03 Eh       3.3414E+00 kcal/mol
        Temperature                        2.9815E+02 K
        Density                            8.8300E-01 kg/L
        Solvent mass                       7.2106E+01 g/mol
        Interaction kernel             P16
        Born radius scaling (c1)           1.7311E+00
        Born radii integrator          GBOBC
        Born offset                        0.0000E+00 a0       0.0000E+00 AA
        H-bond correction              true
        Ion screening                  false
        Surface tension                    1.0000E-05 Eh       1.5569E+01 dyn/cm
        Grid points                               230 per atom
q/qsh data taken from xtbrestart
CAMM data taken from xtbrestart

          ...................................................
          :                      SETUP                      :
          :.................................................:
          :  # basis functions                 252          :
          :  # atomic orbitals                 250          :
          :  # shells                          146          :
          :  # electrons                       262          :
          :  max. iterations                   250          :
          :  Hamiltonian                  GFN2-xTB          :
          :  restarted?                       true          :
          :  GBSA solvation                   true          :
          :  PC potential                    false          :
          :  electronic temp.          300.0000000     K    :
          :  accuracy                    1.0000000          :
          :  -> integral cutoff          0.2500000E+02      :
          :  -> integral neglect         0.1000000E-07      :
          :  -> SCF convergence          0.1000000E-05 Eh   :
          :  -> wf. convergence          0.1000000E-03 e    :
          :  Broyden damping             0.4000000          :
          ...................................................

 iter      E             dE          RMSdq      gap      omega  full diag
   1   -146.4850796 -0.146485E+03  0.249E-05    0.91       0.0  T
   2   -146.4850796  0.964633E-10  0.401E-05    0.91     254.6  T
   3   -146.4850796 -0.120650E-09  0.165E-05    0.91     618.9  T

   *** convergence criteria satisfied after 3 iterations ***

         #    Occupation            Energy/Eh            Energy/eV
      -------------------------------------------------------------
         1        2.0000           -1.0520440             -28.6276
       ...           ...                  ...                  ...
       125        2.0000           -0.3838021             -10.4438
       126        2.0000           -0.3531544              -9.6098
       127        2.0000           -0.3367102              -9.1623
       128        2.0000           -0.3282647              -8.9325
       129        2.0000           -0.3244257              -8.8281
       130        2.0000           -0.3159295              -8.5969
       131        2.0000           -0.3134669              -8.5299 (HOMO)
       132                         -0.2799353              -7.6174 (LUMO)
       133                         -0.2516962              -6.8490
       134                         -0.2493205              -6.7844
       135                         -0.2329904              -6.3400
       136                         -0.2277601              -6.1977
       ...                                ...                  ...
       250                          3.7906051             103.1476
      -------------------------------------------------------------
                  HL-Gap            0.0335315 Eh            0.9124 eV
             Fermi-level           -0.2966668 Eh           -8.0727 eV

 SCC (total)                   0 d,  0 h,  0 min,  0.094 sec
 SCC setup                      ...        0 min,  0.003 sec (  3.197%)
 Dispersion                     ...        0 min,  0.002 sec (  2.164%)
 classical contributions        ...        0 min,  0.000 sec (  0.166%)
 integral evaluation            ...        0 min,  0.012 sec ( 12.471%)
 iterations                     ...        0 min,  0.037 sec ( 39.307%)
 molecular gradient             ...        0 min,  0.039 sec ( 41.966%)
 printout                       ...        0 min,  0.001 sec (  0.668%)

         :::::::::::::::::::::::::::::::::::::::::::::::::::::
         ::                     SUMMARY                     ::
         :::::::::::::::::::::::::::::::::::::::::::::::::::::
         :: total energy            -144.714555297348 Eh    ::
         :: total w/o Gsasa/hb      -144.675794405455 Eh    ::
         :: gradient norm              0.034477098346 Eh/a0 ::
         :: HOMO-LUMO gap              0.912439654699 eV    ::
         ::.................................................::
         :: SCC energy              -146.485079623639 Eh    ::
         :: -> isotropic ES            0.245897699383 Eh    ::
         :: -> anisotropic ES          0.009878301749 Eh    ::
         :: -> anisotropic XC          0.041310589838 Eh    ::
         :: -> dispersion             -0.134729255092 Eh    ::
         :: -> Gsolv                  -0.049048125421 Eh    ::
         ::    -> Gelec               -0.010287233528 Eh    ::
         ::    -> Gsasa               -0.041440937056 Eh    ::
         ::    -> Ghb                 -0.002644770281 Eh    ::
         ::    -> Gshift               0.005324815444 Eh    ::
         :: repulsion energy           1.762478829886 Eh    ::
         :: add. restraining           0.000000000000 Eh    ::
         :: total charge               0.000000000001 e     ::
         :::::::::::::::::::::::::::::::::::::::::::::::::::::

           -------------------------------------------------
          |                Property Printout                |
           -------------------------------------------------

    * Orbital Energies and Occupations

         #    Occupation            Energy/Eh            Energy/eV
      -------------------------------------------------------------
         1        2.0000           -1.0520440             -28.6276
       ...           ...                  ...                  ...
       119        2.0000           -0.4051465             -11.0246
       120        2.0000           -0.3967412             -10.7959
       121        2.0000           -0.3940281             -10.7220
       122        2.0000           -0.3912542             -10.6466
       123        2.0000           -0.3873910             -10.5414
       124        2.0000           -0.3851712             -10.4810
       125        2.0000           -0.3838021             -10.4438
       126        2.0000           -0.3531544              -9.6098
       127        2.0000           -0.3367102              -9.1623
       128        2.0000           -0.3282647              -8.9325
       129        2.0000           -0.3244257              -8.8281
       130        2.0000           -0.3159295              -8.5969
       131        2.0000           -0.3134669              -8.5299 (HOMO)
       132                         -0.2799353              -7.6174 (LUMO)
       133                         -0.2516962              -6.8490
       134                         -0.2493205              -6.7844
       135                         -0.2329904              -6.3400
       136                         -0.2277601              -6.1977
       137                         -0.2083580              -5.6697
       138                         -0.1942262              -5.2852
       139                         -0.1574365              -4.2841
       140                         -0.1365976              -3.7170
       141                         -0.1292601              -3.5173
       142                         -0.1262154              -3.4345
       ...                                ...                  ...
       250                          3.7906051             103.1476
      -------------------------------------------------------------
                  HL-Gap            0.0335315 Eh            0.9124 eV
             Fermi-level           -0.2966668 Eh           -8.0727 eV

     #   Z          covCN         q      C6AA      α(0)
     1   7 N        2.539    -0.119    23.619     7.218
     2   6 C        2.955     0.078    26.255     8.404
     3   6 C        2.918    -0.042    29.036     8.836
     4   6 C        2.924    -0.021    28.520     8.758
     5   6 C        2.915    -0.042    29.034     8.836
     6   6 C        2.893     0.048    26.925     8.508
     7   1 H        0.926     0.058     2.228     2.334
     8   1 H        0.926     0.060     2.196     2.317
     9   1 H        0.926     0.050     2.315     2.379
    10   6 C        2.953     0.074    26.343     8.418
    11   7 N        2.549    -0.125    23.749     7.237
    12   6 C        2.891     0.042    27.067     8.530
    13   6 C        2.915    -0.043    29.067     8.841
    14   6 C        2.923    -0.022    28.563     8.764
    15   6 C        2.918    -0.045    29.116     8.849
    16   1 H        0.926     0.051     2.310     2.376
    17   1 H        0.926     0.055     2.258     2.350
    18   1 H        0.926     0.079     1.991     2.207
    19  77 Ir       5.925    -0.149   387.342    36.395
    20   1 H        0.977     0.103     1.750     2.067
    21   5 B        2.633     0.401    16.029     6.761
    22   8 O        1.638    -0.404    20.929     6.175
    23   6 C        3.836     0.129    18.461     6.113
    24   6 C        3.755    -0.123    22.914     6.825
    25   1 H        0.925     0.055     2.259     2.351
    26   1 H        0.925     0.046     2.369     2.407
    27   1 H        0.925     0.052     2.293     2.368
    28   6 C        3.754    -0.112    22.690     6.792
    29   1 H        0.925     0.049     2.333     2.389
    30   1 H        0.925     0.043     2.406     2.425
    31   1 H        0.925     0.029     2.600     2.522
    32   6 C        3.842     0.130    18.447     6.110
    33   8 O        1.637    -0.399    20.838     6.162
    34   6 C        3.755    -0.123    22.913     6.825
    35   1 H        0.925     0.053     2.282     2.362
    36   1 H        0.925     0.047     2.356     2.400
    37   1 H        0.925     0.050     2.316     2.380
    38   6 C        3.754    -0.121    22.881     6.821
    39   1 H        0.925     0.048     2.345     2.395
    40   1 H        0.925     0.054     2.273     2.358
    41   1 H        0.925     0.046     2.367     2.406
    42   5 B        2.628     0.401    16.062     6.773
    43   8 O        1.637    -0.381    20.485     6.109
    44   6 C        3.838     0.128    18.472     6.114
    45   6 C        3.755    -0.125    22.964     6.833
    46   1 H        0.925     0.054     2.268     2.355
    47   1 H        0.925     0.057     2.238     2.340
    48   1 H        0.925     0.050     2.322     2.383
    49   6 C        3.755    -0.123    22.916     6.826
    50   1 H        0.925     0.050     2.324     2.384
    51   1 H        0.925     0.048     2.351     2.398
    52   1 H        0.925     0.054     2.270     2.356
    53   6 C        3.833     0.127    18.494     6.118
    54   8 O        1.637    -0.380    20.473     6.108
    55   6 C        3.755    -0.125    22.961     6.832
    56   1 H        0.925     0.056     2.247     2.344
    57   1 H        0.925     0.055     2.261     2.351
    58   1 H        0.925     0.049     2.333     2.388
    59   6 C        3.755    -0.121    22.882     6.821
    60   1 H        0.925     0.043     2.413     2.429
    61   1 H        0.925     0.053     2.289     2.366
    62   1 H        0.925     0.049     2.329     2.387
    63   5 B        2.626     0.399    16.093     6.781
    64   8 O        1.637    -0.377    20.423     6.100
    65   6 C        3.832     0.125    18.535     6.125
    66   6 C        3.755    -0.131    23.076     6.850
    67   1 H        0.925     0.060     2.203     2.321
    68   1 H        0.925     0.054     2.276     2.359
    69   1 H        0.925     0.051     2.311     2.377
    70   6 C        3.755    -0.130    23.052     6.846
    71   1 H        0.925     0.060     2.195     2.317
    72   1 H        0.925     0.051     2.304     2.374
    73   1 H        0.925     0.053     2.285     2.364
    74   6 C        3.829     0.126    18.509     6.121
    75   8 O        1.637    -0.374    20.369     6.092
    76   6 C        3.755    -0.125    22.960     6.832
    77   1 H        0.925     0.051     2.301     2.372
    78   1 H        0.925     0.055     2.258     2.350
    79   1 H        0.925     0.056     2.252     2.347
    80   6 C        3.755    -0.124    22.932     6.828
    81   1 H        0.925     0.042     2.422     2.434
    82   1 H        0.925     0.051     2.307     2.375
    83   1 H        0.925     0.055     2.253     2.347
    84   1 H        0.926     0.057     2.237     2.339
    85   1 H        0.926     0.054     2.271     2.356
    86   6 C        2.834    -0.027    28.657     8.773
    87   6 C        2.921    -0.054    29.347     8.884
    88   6 C        2.954    -0.052    29.286     8.876
    89   6 C        2.790     0.161    24.514     8.110
    90   1 H        0.926     0.057     2.229     2.335
    91   6 C        2.895     0.094    25.913     8.346
    92   1 H        0.926     0.071     2.071     2.250
    93   9 F        0.786    -0.257    11.838     4.064
    94   6 C        2.953    -0.075    29.860     8.963
    95  17 Cl       0.969    -0.193   105.237    15.694
    96   1 H        0.926     0.076     2.018     2.222

 Mol. C6AA /au·bohr⁶  :     103406.951565
 Mol. C8AA /au·bohr⁸  :    2820555.435511
 Mol. α(0) /au        :        498.111812


Wiberg/Mayer (AO) data.
largest (>0.10) Wiberg bond orders for each atom

 ---------------------------------------------------------------------------
     #   Z sym  total        # sym  WBO       # sym  WBO       # sym  WBO
 ---------------------------------------------------------------------------
     1   7 N    3.399 --     6 C    1.392     2 C    1.319    19 Ir   0.429
     2   6 C    3.979 --     3 C    1.354     1 N    1.319    10 C    1.084
     3   6 C    3.988 --     4 C    1.477     2 C    1.354     9 H    0.962
                             6 C    0.106
     4   6 C    3.985 --     3 C    1.477     5 C    1.390    84 H    0.968
     5   6 C    3.979 --     6 C    1.455     4 C    1.390     8 H    0.968
     6   6 C    3.977 --     5 C    1.455     1 N    1.392     7 H    0.957
                             3 C    0.106
     7   1 H    0.996 --     6 C    0.957
     8   1 H    0.995 --     5 C    0.968
     9   1 H    0.997 --     3 C    0.962
    10   6 C    3.979 --    15 C    1.359    11 N    1.313     2 C    1.084
    11   7 N    3.406 --    12 C    1.393    10 C    1.313    19 Ir   0.421
    12   6 C    3.972 --    13 C    1.451    11 N    1.393    18 H    0.947
                            15 C    0.105
    13   6 C    3.981 --    12 C    1.451    14 C    1.394    17 H    0.969
    14   6 C    3.983 --    15 C    1.473    13 C    1.394    85 H    0.968
    15   6 C    3.989 --    14 C    1.473    10 C    1.359    16 H    0.961
                            12 C    0.105
    16   1 H    0.997 --    15 C    0.961
    17   1 H    0.996 --    13 C    0.969
    18   1 H    0.993 --    12 C    0.947
    19  77 Ir   5.133 --    63 B    0.858    42 B    0.854    21 B    0.746
                            86 C    0.580    20 H    0.532     1 N    0.429
                            11 N    0.421
    20   1 H    0.988 --    19 Ir   0.532    86 C    0.351
    21   5 B    3.284 --    33 O    1.116    22 O    1.096    19 Ir   0.746
    22   8 O    2.198 --    21 B    1.096    23 C    0.941
    23   6 C    3.942 --    24 C    0.997    28 C    0.990    22 O    0.941
                            32 C    0.941
    24   6 C    3.993 --    23 C    0.997    26 H    0.983    27 H    0.983
                            25 H    0.982
    25   1 H    0.997 --    24 C    0.982
    26   1 H    0.997 --    24 C    0.983
    27   1 H    0.997 --    24 C    0.983
    28   6 C    3.996 --    23 C    0.990    31 H    0.985    30 H    0.984
                            29 H    0.984
    29   1 H    0.997 --    28 C    0.984
    30   1 H    0.998 --    28 C    0.984
    31   1 H    0.999 --    28 C    0.985
    32   6 C    3.939 --    38 C    0.997    34 C    0.991    23 C    0.941
                            33 O    0.938
    33   8 O    2.207 --    21 B    1.116    32 C    0.938
    34   6 C    3.994 --    32 C    0.991    36 H    0.983    37 H    0.982
                            35 H    0.981
    35   1 H    0.997 --    34 C    0.981
    36   1 H    0.997 --    34 C    0.983
    37   1 H    0.997 --    34 C    0.982
    38   6 C    3.994 --    32 C    0.997    41 H    0.984    39 H    0.983
                            40 H    0.983
    39   1 H    0.998 --    38 C    0.983
    40   1 H    0.997 --    38 C    0.983
    41   1 H    0.997 --    38 C    0.984
    42   5 B    3.339 --    43 O    1.122    54 O    1.114    19 Ir   0.854
    43   8 O    2.229 --    42 B    1.122    44 C    0.934
    44   6 C    3.936 --    45 C    0.997    49 C    0.991    53 C    0.939
                            43 O    0.934
    45   6 C    3.993 --    44 C    0.997    48 H    0.983    46 H    0.982
                            47 H    0.982
    46   1 H    0.997 --    45 C    0.982
    47   1 H    0.997 --    45 C    0.982
    48   1 H    0.996 --    45 C    0.983
    49   6 C    3.993 --    44 C    0.991    50 H    0.983    51 H    0.982
                            52 H    0.980
    50   1 H    0.997 --    49 C    0.983
    51   1 H    0.997 --    49 C    0.982
    52   1 H    0.997 --    49 C    0.980
    53   6 C    3.937 --    55 C    0.996    59 C    0.992    44 C    0.939
                            54 O    0.933
    54   8 O    2.232 --    42 B    1.114    53 C    0.933
    55   6 C    3.992 --    53 C    0.996    58 H    0.983    57 H    0.983
                            56 H    0.982
    56   1 H    0.997 --    55 C    0.982
    57   1 H    0.997 --    55 C    0.983
    58   1 H    0.996 --    55 C    0.983
    59   6 C    3.994 --    53 C    0.992    62 H    0.983    61 H    0.983
                            60 H    0.982
    60   1 H    0.998 --    59 C    0.982
    61   1 H    0.996 --    59 C    0.983
    62   1 H    0.997 --    59 C    0.983
    63   5 B    3.369 --    75 O    1.127    64 O    1.112    19 Ir   0.858
    64   8 O    2.230 --    63 B    1.112    65 C    0.937
    65   6 C    3.937 --    70 C    0.996    66 C    0.991    74 C    0.938
                            64 O    0.937
    66   6 C    3.992 --    65 C    0.991    69 H    0.983    68 H    0.983
                            67 H    0.978
    67   1 H    0.996 --    66 C    0.978
    68   1 H    0.997 --    66 C    0.983
    69   1 H    0.996 --    66 C    0.983
    70   6 C    3.992 --    65 C    0.996    72 H    0.983    73 H    0.982
                            71 H    0.982
    71   1 H    0.996 --    70 C    0.982
    72   1 H    0.996 --    70 C    0.983
    73   1 H    0.997 --    70 C    0.982
    74   6 C    3.934 --    76 C    0.996    80 C    0.992    65 C    0.938
                            75 O    0.935
    75   8 O    2.241 --    63 B    1.127    74 C    0.935
    76   6 C    3.992 --    74 C    0.996    77 H    0.983    78 H    0.982
                            79 H    0.981
    77   1 H    0.996 --    76 C    0.983
    78   1 H    0.997 --    76 C    0.982
    79   1 H    0.997 --    76 C    0.981
    80   6 C    3.994 --    74 C    0.992    81 H    0.984    83 H    0.983
                            82 H    0.983
    81   1 H    0.998 --    80 C    0.984
    82   1 H    0.997 --    80 C    0.983
    83   1 H    0.996 --    80 C    0.983
    84   1 H    0.996 --     4 C    0.968
    85   1 H    0.996 --    14 C    0.968
    86   6 C    3.928 --    87 C    1.375    88 C    1.366    19 Ir   0.580
                            20 H    0.351
    87   6 C    3.986 --    89 C    1.405    86 C    1.375    90 H    0.961
    88   6 C    3.985 --    91 C    1.428    86 C    1.366    92 H    0.957
    89   6 C    3.872 --    87 C    1.405    94 C    1.394    93 F    0.930
    90   1 H    0.996 --    87 C    0.961
    91   6 C    3.910 --    88 C    1.428    94 C    1.386    95 Cl   0.956
    92   1 H    0.995 --    88 C    0.957
    93   9 F    1.050 --    89 C    0.930
    94   6 C    3.978 --    89 C    1.394    91 C    1.386    96 H    0.963
    95  17 Cl   1.085 --    91 C    0.956
    96   1 H    0.993 --    94 C    0.963
 ---------------------------------------------------------------------------

Topologies differ in total number of bonds
Writing topology from bond orders to xtbtopo.mol

molecular dipole:
                 x           y           z       tot (Debye)
 q only:        0.313       0.790      -2.782
   full:       -0.817       0.978      -2.952       8.173
molecular quadrupole (traceless):
                xx          xy          yy          xz          yz          zz
 q only:       20.725      -2.532      10.366       3.437      24.494     -31.091
  q+dip:       21.253      -1.774       6.852       4.427      27.717     -28.105
   full:       19.048      -0.850       9.421       2.977      24.826     -28.469


           -------------------------------------------------
          | TOTAL ENERGY             -144.714555297348 Eh   |
          | GRADIENT NORM               0.034477098346 Eh/α |
          | HOMO-LUMO GAP               0.912439654699 eV   |
           -------------------------------------------------

------------------------------------------------------------------------
 * finished run on 2022/01/14 at 15:24:03.167     
------------------------------------------------------------------------
 total:
 * wall-time:     0 d,  0 h,  0 min,  0.122 sec
 *  cpu-time:     0 d,  0 h,  0 min,  0.716 sec
 * ratio c/w:     5.849 speedup
 SCF:
 * wall-time:     0 d,  0 h,  0 min,  0.095 sec
 *  cpu-time:     0 d,  0 h,  0 min,  0.569 sec
 * ratio c/w:     5.968 speedup

