105
 energy: -155.482578104502 gnorm: 0.076429133436 xtb: 6.4.1 (1a32961)
N        -0.96510000000000   -2.11530000000000   -0.24090000000000
C        -2.24700000000000   -1.69840000000000   -0.36220000000000
C        -3.14040000000000   -2.36820000000000   -1.21200000000000
C        -2.70220000000000   -3.47560000000000   -1.93050000000000
C        -1.37780000000000   -3.89880000000000   -1.78760000000000
C        -0.54290000000000   -3.18670000000000   -0.93510000000000
H         0.49810000000000   -3.45630000000000   -0.78940000000000
H        -0.99570000000000   -4.76030000000000   -2.32770000000000
H        -4.16500000000000   -2.02890000000000   -1.31830000000000
C        -2.62130000000000   -0.50950000000000    0.44100000000000
N        -1.62600000000000    0.07330000000000    1.16020000000000
C        -1.89680000000000    1.15240000000000    1.91690000000000
C        -3.17230000000000    1.70330000000000    1.99650000000000
C        -4.20510000000000    1.11740000000000    1.26270000000000
C        -3.92610000000000    0.00250000000000    0.47820000000000
H        -4.71960000000000   -0.46420000000000   -0.09520000000000
H        -3.34630000000000    2.57510000000000    2.62070000000000
H        -1.04450000000000    1.57420000000000    2.43690000000000
Ir        0.42150000000000   -0.81650000000000    0.91330000000000
H         0.87260000000000   -2.23030000000000    1.54050000000000
B         0.50670000000000    0.41560000000000   -0.81540000000000
O         0.19500000000000   -0.04700000000000   -2.09150000000000
C         0.00650000000000    1.10040000000000   -2.95430000000000
C         0.49020000000000    0.74740000000000   -4.35780000000000
H         1.51610000000000    0.37380000000000   -4.33700000000000
H         0.44730000000000    1.62240000000000   -5.01670000000000
H        -0.14740000000000   -0.03390000000000   -4.78430000000000
C        -1.50120000000000    1.39560000000000   -2.96670000000000
H        -1.75370000000000    2.21460000000000   -3.64850000000000
H        -2.03200000000000    0.49450000000000   -3.28930000000000
H        -1.85170000000000    1.65210000000000   -1.96220000000000
C         0.84230000000000    2.20670000000000   -2.22040000000000
O         0.75200000000000    1.78260000000000   -0.83690000000000
C         2.32930000000000    2.18620000000000   -2.59900000000000
H         2.74130000000000    1.18500000000000   -2.45750000000000
H         2.48870000000000    2.51300000000000   -3.63180000000000
H         2.87200000000000    2.86270000000000   -1.93200000000000
C         0.28440000000000    3.62290000000000   -2.33660000000000
H        -0.72650000000000    3.69040000000000   -1.92910000000000
H         0.92130000000000    4.31480000000000   -1.77610000000000
H         0.26430000000000    3.94810000000000   -3.38320000000000
B         1.56300000000000    0.60960000000000    1.84840000000000
O         2.92780000000000    0.55230000000000    2.15020000000000
C         3.36330000000000    1.88660000000000    2.50260000000000
C         4.53140000000000    1.78590000000000    3.47740000000000
H         4.27910000000000    1.16090000000000    4.33690000000000
H         5.39390000000000    1.33790000000000    2.97340000000000
H         4.82390000000000    2.77870000000000    3.83820000000000
C         3.79700000000000    2.56850000000000    1.19670000000000
H         4.20020000000000    3.57090000000000    1.37680000000000
H         4.56740000000000    1.95560000000000    0.72110000000000
H         2.95240000000000    2.63260000000000    0.50540000000000
C         2.05040000000000    2.50090000000000    3.09320000000000
O         1.03750000000000    1.81620000000000    2.31910000000000
C         1.89100000000000    4.00450000000000    2.88650000000000
H         1.87290000000000    4.25440000000000    1.82410000000000
H         0.94940000000000    4.34260000000000    3.33170000000000
H         2.71080000000000    4.55150000000000    3.36630000000000
C         1.82470000000000    2.13200000000000    4.56520000000000
H         1.92610000000000    1.05330000000000    4.71320000000000
H         2.52610000000000    2.65280000000000    5.22540000000000
H         0.80630000000000    2.41580000000000    4.84900000000000
B         2.27820000000000   -1.33090000000000    0.17410000000000
O         2.89460000000000   -2.57740000000000    0.38450000000000
C         4.26930000000000   -2.48200000000000   -0.07210000000000
C         5.10900000000000   -2.05380000000000    1.14010000000000
H         4.76350000000000   -1.08740000000000    1.51750000000000
H         4.98050000000000   -2.79470000000000    1.93590000000000
H         6.17420000000000   -1.99290000000000    0.89300000000000
C         4.71950000000000   -3.84660000000000   -0.58470000000000
H         4.75280000000000   -4.56130000000000    0.24420000000000
H         5.72330000000000   -3.78370000000000   -1.02010000000000
H         4.03500000000000   -4.23600000000000   -1.34170000000000
C         4.16440000000000   -1.36220000000000   -1.16300000000000
O         3.08520000000000   -0.55030000000000   -0.65400000000000
C         5.40720000000000   -0.48870000000000   -1.31550000000000
H         6.27320000000000   -1.09010000000000   -1.61530000000000
H         5.23300000000000    0.26930000000000   -2.08590000000000
H         5.64270000000000    0.02650000000000   -0.38240000000000
C         3.71800000000000   -1.89830000000000   -2.53110000000000
H         2.82530000000000   -2.52160000000000   -2.42740000000000
H         3.46090000000000   -1.05250000000000   -3.17550000000000
H         4.50570000000000   -2.48290000000000   -3.01790000000000
H        -3.38500000000000   -4.00130000000000   -2.59310000000000
H        -5.21400000000000    1.52079999999999    1.29960000000000
C         0.23590000000000   -1.68140000000000    2.96030000000000
C        -1.00666596577142   -2.07325829859661    3.43829847669059
C         1.27106113126693   -1.80168367025367    3.89257852314013
C        -1.23691784691742   -2.47505237625720    4.76177865940715
O        -2.20145285076893   -2.16825002198571    2.77672529051514
C         1.07785385082799   -2.24071184665452    5.20708833219525
H         2.26634407495427   -1.56097573709439    3.54669840951517
N        -2.57091439326355   -2.79579827354573    4.89140110986094
C        -0.19392634454795   -2.57216365147880    5.67475183553379
C        -3.08334416801537   -2.60486767905541    3.71489710488493
O         2.10153039544645   -2.41251907518761    6.10158879884525
H        -0.34435802681577   -2.92699401653174    6.68246518711179
C        -4.49280454164666   -2.81975852614512    3.32639437523717
C         3.43009490458668   -2.41333397763676    5.60908323278953
H        -5.02920203552508   -3.25166830993053    4.16894034747905
H        -4.54257388015368   -3.48920240702915    2.46697338149055
H        -4.94894303890944   -1.86935328782470    3.04626033946935
H         4.04911498290761   -2.72066455891142    6.45291757689263
H         3.73643769019299   -1.41944564928208    5.26985652403955
H         3.54360912838378   -3.12586195667543    4.78663417392245
105
 energy: -155.489123468488 gnorm: 0.046583163675 xtb: 6.4.1 (1a32961)
N        -0.96033227440274   -2.09771273245781   -0.25358540807802
C        -2.23735242919326   -1.68704679019281   -0.36642470970676
C        -3.13328478848634   -2.36055529552952   -1.20528736353827
C        -2.70430876131869   -3.46335437793002   -1.92028856753942
C        -1.38499991335224   -3.88287247998957   -1.78113157023365
C        -0.55436713377641   -3.16776939621257   -0.94002230917544
H         0.47963650602173   -3.44759043464465   -0.79156782617329
H        -1.00879195615884   -4.74293517264893   -2.31652451916095
H        -4.15367092100426   -2.02476820304074   -1.30923968578042
C        -2.60797873754247   -0.50770537718094    0.43021103263745
N        -1.61605876047712    0.07552874117346    1.13760474018510
C        -1.89642587153582    1.14076609802233    1.89108952187514
C        -3.16477244572801    1.68680744360372    1.98365874914936
C        -4.19505697431721    1.10289655414879    1.25646338177628
C        -3.91214353493337   -0.00270359295904    0.47494337120192
H        -4.70396180321980   -0.46860522740282   -0.09141382350352
H        -3.34020950141529    2.54888914542165    2.61197319478548
H        -1.05390496900561    1.55847310507348    2.42176287381271
Ir        0.42150000000000   -0.81650000000000    0.91330000000000
H         0.87260000000000   -2.23030000000000    1.54050000000000
B         0.49008143377812    0.42268258446760   -0.79072213542187
O         0.17507441834988   -0.03570494367369   -2.06320453707448
C         0.01049744696739    1.09658422559389   -2.94361458978330
C         0.48989878364209    0.74726784896240   -4.34843976506112
H         1.50881369541600    0.37054639873082   -4.32690227751918
H         0.44511192541052    1.62283668084810   -4.99665221473032
H        -0.14888090928281   -0.02856112358118   -4.76894609990171
C        -1.49353805190987    1.39924830277920   -2.97001770926572
H        -1.73168884068235    2.21232783581426   -3.65406650965959
H        -2.02352083520208    0.50221352544446   -3.29007116490656
H        -1.84019980550559    1.65390697998113   -1.96833447119255
C         0.83213802759865    2.20621936456078   -2.21186916354410
O         0.75541422744374    1.77831068163667   -0.83472161616577
C         2.31463451325102    2.19035329133430   -2.59941888758563
H         2.71893627742648    1.19129461364119   -2.44959037994951
H         2.46593321689895    2.51200678260777   -3.62909351583710
H         2.85670789299686    2.86522378207358   -1.93806096839510
C         0.28077445082956    3.62244307848812   -2.33894201662821
H        -0.72256103570313    3.69165420899184   -1.92687875234055
H         0.92034941195573    4.30616280611084   -1.78233859429898
H         0.26329575039310    3.93490895944279   -3.38313756836258
B         1.56449852158637    0.61416905905957    1.86040297337749
O         2.92481114226237    0.56251557269452    2.14168439753037
C         3.36308033992572    1.88545162493686    2.51047919079132
C         4.53333550720995    1.78919358541888    3.48069197859302
H         4.28080368312992    1.16366793989606    4.33283098577802
H         5.38820718574150    1.34378118198804    2.97360558190562
H         4.81592016537829    2.77968778013316    3.83563718107514
C         3.79877218305696    2.57211910332100    1.21163194283352
H         4.19982179564054    3.56792711907473    1.39558266026321
H         4.56288959787790    1.96089397650736    0.73456671237575
H         2.95046182580431    2.62444514928932    0.53055114990621
C         2.05310303430951    2.50433097429353    3.09020082166270
O         1.04102005088548    1.80751246974625    2.33685887063379
C         1.89419944364149    4.00642043371573    2.88915887968827
H         1.86877911464503    4.24970864764426    1.83079772245977
H         0.95673153204341    4.33555528612385    3.33567444905213
H         2.71449436317973    4.54280689104304    3.36544308274726
C         1.83168050705381    2.14022462270994    4.56249693013247
H         1.93100307676288    1.06420697095170    4.70130486261243
H         2.53275841180034    2.66119174956541    5.21210900875830
H         0.81734075060595    2.41866490603800    4.84714049757410
B         2.27820000000000   -1.33090000000000    0.17410000000000
O         2.90173348770732   -2.56102171234063    0.39306542682663
C         4.26595182203869   -2.48340576011902   -0.07739554299616
C         5.11039900276068   -2.05816235845967    1.12826895040463
H         4.75388920003256   -1.09821440864840    1.49938978209751
H         4.97978895840087   -2.79416883101536    1.92072866219731
H         6.16790700555377   -1.99808955639026    0.87637325962483
C         4.72027884661570   -3.84563391130352   -0.58728553595461
H         4.75017644218567   -4.55035190706471    0.24240957587670
H         5.71782517741787   -3.77401361609296   -1.01977240762187
H         4.03436781378386   -4.23279431806947   -1.33589580870329
C         4.16650103027559   -1.36055337343967   -1.15765851171369
O         3.07406540556292   -0.56401176084436   -0.66152257054195
C         5.40964075808915   -0.49212702378777   -1.31521329778337
H         6.26575374750095   -1.09783666111884   -1.61104362988442
H         5.23099193861864    0.25875206700046   -2.08356761659094
H         5.63731725679028    0.02262276490406   -0.38633037505713
C         3.72938276816854   -1.89973297704681   -2.52565076421772
H         2.83719157460017   -2.51492993757994   -2.41710968745894
H         3.47215110008901   -1.05805917848857   -3.16720725149909
H         4.51943290097028   -2.47670179935378   -3.00339012640372
H        -3.38392295908965   -3.98796703193437   -2.57815884124213
H        -5.19968717814618    1.50275121118948    1.29837197821759
C         0.23590000000000   -1.68140000000000    2.96030000000000
C        -1.00654880083989   -2.07162974638029    3.43765165488673
C         1.26810024983962   -1.79987487622025    3.89389120027331
C        -1.23690929446737   -2.47281570889264    4.76582301348272
O        -2.20398384215512   -2.16870998517509    2.77913585198649
C         1.07392903880894   -2.23716903647429    5.20812239739612
H         2.26178367980438   -1.55959395898057    3.54999876472427
N        -2.57325604716430   -2.79329717191801    4.89090277444277
C        -0.19523216833850   -2.56813945649400    5.67578160076946
C        -3.08198484860818   -2.60379096840796    3.71783250702168
O         2.09822933467327   -2.40702941978317    6.10271874010336
H        -0.34459238159085   -2.92078048071604    6.68198156881211
C        -4.49240214315755   -2.81955371128151    3.32799496984855
C         3.42592224459437   -2.40743987018929    5.61203125249041
H        -5.02850373610541   -3.24967202131587    4.16820245854444
H        -4.54147260416850   -3.48873798748072    2.47039330520486
H        -4.94798466862506   -1.87075832655798    3.04660689169197
H         4.04417818100300   -2.71302743980533    6.45520938291390
H         3.73239545143804   -1.41433072763372    5.27211685005280
H         3.54129817266774   -3.12039226945464    4.79081388097115
105
 energy: -155.490750416091 gnorm: 0.037216105274 xtb: 6.4.1 (1a32961)
N        -0.95129983920729   -2.08871837423347   -0.26234286095988
C        -2.22498509277633   -1.67752166742130   -0.37130221884063
C        -3.12694174154797   -2.34983722237517   -1.20358187224516
C        -2.70806193596660   -3.45228867230302   -1.91729346504064
C        -1.38963869574942   -3.87322967575458   -1.78178277440759
C        -0.55825783076551   -3.15795959669931   -0.94640739759483
H         0.47405391761351   -3.44301307223768   -0.80515978738777
H        -1.01999397103019   -4.73427198313933   -2.31387992094960
H        -4.14603659693257   -2.01484368907102   -1.29908545833484
C        -2.59199720402513   -0.50648997635063    0.42136678351336
N        -1.60365747859800    0.07328837434969    1.12890309514639
C        -1.89079571406908    1.13131897222891    1.87903124416154
C        -3.15611245076374    1.67561507633928    1.97689839132357
C        -4.18616879248334    1.09134028064780    1.25052006185987
C        -3.89751088382515   -0.00673643377473    0.46756431557637
H        -4.68708132975772   -0.47665260409045   -0.09421543836819
H        -3.33339419939777    2.53044534328716    2.60925188776414
H        -1.05378712990260    1.55493796916013    2.41077287102388
Ir        0.42150000000000   -0.81650000000000    0.91330000000000
H         0.87260000000000   -2.23030000000000    1.54050000000000
B         0.49627956931706    0.43058541892713   -0.76991447186018
O         0.15588463978347   -0.02696431756631   -2.03448615942126
C         0.00593223779512    1.09382032787201   -2.92392310254538
C         0.49043212871523    0.73987610812887   -4.32616666548352
H         1.50563722240337    0.35947233358772   -4.30535935419200
H         0.44601883334231    1.61876948082825   -4.96434937032637
H        -0.15225226978122   -0.02970566114709   -4.74561780866690
C        -1.49625799176291    1.40631178120413   -2.96967012330664
H        -1.71571007400427    2.21599575073501   -3.65911129128113
H        -2.02588077072810    0.51197577751707   -3.29108439184090
H        -1.84561060575482    1.66426868620567   -1.97204075079728
C         0.82474859175163    2.20532895853362   -2.19839153957535
O         0.76001993804843    1.78050505532490   -0.82606024181917
C         2.30468850377944    2.19498324958277   -2.59611150109713
H         2.70647233404014    1.19764201435471   -2.43954240250027
H         2.44243417152436    2.50951589937145   -3.62669021282143
H         2.84642124113348    2.87457541017835   -1.94295959477207
C         0.27066003460649    3.62007625556849   -2.33385944712641
H        -0.72859055332244    3.69526137062441   -1.91839081226406
H         0.91548686758704    4.30253124778263   -1.78683741277306
H         0.25374843939179    3.91597853308028   -3.37946243157724
B         1.56798705777139    0.61897616473743    1.86879489205007
O         2.92354003157600    0.57009855696277    2.13560700606424
C         3.36215288184651    1.88463411798587    2.51586354465546
C         4.53117622043536    1.78946433776497    3.48837563476284
H         4.28179495663304    1.16227558652742    4.33732761790954
H         5.38319380957723    1.34943382101004    2.97767066355349
H         4.80453251294712    2.78028503800364    3.83908166835510
C         3.80167073269591    2.57990554064825    1.22330263817761
H         4.19894282037241    3.57197718190971    1.41504823651453
H         4.56524663788392    1.97156657169503    0.74642967190670
H         2.95184294638799    2.62638313386187    0.54673174029416
C         2.05385781127279    2.50260092117723    3.09362311547381
O         1.04374856844941    1.79872618353299    2.35297797810543
C         1.89662414740623    4.00444397390552    2.88973563749562
H         1.86371921554373    4.24569020014576    1.83326345534541
H         0.96405014062931    4.33024807455906    3.34214591935437
H         2.72046726534859    4.53233781177668    3.36137101178806
C         1.84156705494965    2.14770835346669    4.57024932487391
H         1.94124187559253    1.07296615659407    4.70415806274383
H         2.54558342674576    2.67153904821097    5.20890537936715
H         0.82949121810340    2.42448595980367    4.85596757225348
B         2.27820000000001   -1.33090000000000    0.17410000000000
O         2.90447340513413   -2.54857709206225    0.40337333183785
C         4.25961039020660   -2.48146313929377   -0.07692697351383
C         5.11545962064206   -2.05975448728387    1.12157014797964
H         4.75351100328441   -1.10310557250248    1.49019726798133
H         4.98661966536189   -2.79497657766796    1.91149621090400
H         6.16719351707294   -2.00000925712798    0.86045367169699
C         4.71214849101500   -3.84347958727554   -0.58993566813161
H         4.74472127068169   -4.54213314112015    0.24099123389772
H         5.70551941267741   -3.76284899917107   -1.02175422316395
H         4.02578971727433   -4.23191469231967   -1.33399198668361
C         4.16217479140053   -1.36097824776055   -1.15567271662700
O         3.06196929053731   -0.57375831296077   -0.66977726727121
C         5.40650900531478   -0.49385550410730   -1.30908403188877
H         6.25505618173313   -1.10677791226875   -1.59917595787421
H         5.22917629114312    0.25009221583344   -2.08055939013950
H         5.63073346568809    0.02339294604454   -0.38346999716187
C         3.73991581352684   -1.90371425378304   -2.52745589111089
H         2.84865917761887   -2.51611047287763   -2.41833083692409
H         3.48654547252426   -1.06376744405696   -3.16936955789366
H         4.53628476948937   -2.47635168267451   -2.99225086261942
H        -3.39048389411265   -3.97784538442113   -2.56707366080080
H        -5.19060291657758    1.48400749261950    1.29883015039315
C         0.23589999999999   -1.68139999999999    2.96030000000000
C        -1.00726667082848   -2.06838890343828    3.43690938759909
C         1.26587105356115   -1.79645430781904    3.89598076501103
C        -1.23862379628281   -2.46722590703553    4.76925626146863
O        -2.20679915177388   -2.16700688576181    2.77968581099175
C         1.06962685853146   -2.22951897251281    5.21068955602190
H         2.25925690841684   -1.55760618210912    3.55368649819594
N        -2.57687558564883   -2.78706910075385    4.89103203389494
C        -0.19861828497474   -2.55984110480092    5.67813176166845
C        -3.08194131671730   -2.60006512177167    3.71927011453705
O         2.09350184607795   -2.39606931479443    6.10677988240493
H        -0.34772706582244   -2.90936231243353    6.68457551491910
C        -4.49310005257685   -2.81797276173406    3.32834750289032
C         3.42051735199646   -2.39586523406542    5.61816034811989
H        -5.02890430419436   -3.24611686336534    4.16828669553370
H        -4.53986133695832   -3.48866744430412    2.47273418227659
H        -4.94789126668506   -1.87018315874088    3.04464496017834
H         4.03798876442855   -2.69871639683870    6.46206087973772
H         3.72641861706998   -1.40325378542939    5.27646401515534
H         3.53820593293418   -3.11011004779053    4.79842437750714
105
 energy: -155.491292405828 gnorm: 0.036751335440 xtb: 6.4.1 (1a32961)
N        -0.94138110628831   -2.08472862638210   -0.27262207873846
C        -2.21529245350126   -1.67226646024202   -0.37703759623535
C        -3.12279239996205   -2.34414334422964   -1.20466113422534
C        -2.71082501083594   -3.44853053343342   -1.91807636218321
C        -1.39105381186793   -3.87081370892973   -1.78812122238060
C        -0.55477222411282   -3.15436997959691   -0.95833602092082
H         0.47729033892671   -3.44405070470217   -0.82222778866168
H        -1.02634075873946   -4.73393343701469   -2.31927497420073
H        -4.14119877088780   -2.00610832141792   -1.29522088676173
C        -2.58013442811360   -0.50431230841687    0.41548463559330
N        -1.59236980178403    0.07581716319655    1.12397672553263
C        -1.88306944878514    1.13185567471209    1.87445220440164
C        -3.14988690817892    1.67161982206570    1.97691322828616
C        -4.18045021962988    1.08495223562928    1.25072942279680
C        -3.88763806609435   -0.00835437868015    0.46388954642615
H        -4.67496862437004   -0.48003079807518   -0.09914701079879
H        -3.32909179597635    2.52266160378234    2.61274485607697
H        -1.04919819168893    1.55856079327040    2.40921535911459
Ir        0.42150000000000   -0.81650000000000    0.91330000000000
H         0.87260000000000   -2.23030000000000    1.54050000000000
B         0.48088322419639    0.44350919594978   -0.75188991689414
O         0.13454871853589   -0.01889511038306   -2.01263177758520
C        -0.00264120495494    1.09453501568191   -2.90784103460592
C         0.48936961122872    0.73115036226897   -4.30583032364446
H         1.50209925497982    0.34490896451240   -4.27862291712735
H         0.45229398669357    1.60998681013322   -4.94394997815981
H        -0.15624627027673   -0.03551755491071   -4.72572023681411
C        -1.50359904869075    1.41511689481502   -2.96923750658606
H        -1.70857801035541    2.22321946304916   -3.66439819835033
H        -2.03429384199613    0.52243228357192   -3.29282528291302
H        -1.86105304691901    1.67897485425065   -1.97617698289586
C         0.81722202870020    2.20757252291921   -2.18540310554428
O         0.76043467490807    1.78826198377732   -0.81416371499848
C         2.29573907195254    2.19888914468302   -2.59169164768884
H         2.69979234519085    1.20345497719022   -2.42940375613263
H         2.42486089093477    2.50614127078536   -3.62518195323689
H         2.83838796762471    2.88526817338438   -1.94666206769269
C         0.26186080248350    3.62207823304884   -2.32689115593556
H        -0.73524458929242    3.70073422393264   -1.90731878253935
H         0.91031021981012    4.30830809763892   -1.78908910667268
H         0.24030372891663    3.90667034534766   -3.37529094224506
B         1.56918907748489    0.61848401118189    1.87819471149534
O         2.92493937006578    0.57283999908628    2.13118451907101
C         3.36227766034954    1.88340392823447    2.52040842312636
C         4.53093004022352    1.78759256792843    3.49472319905227
H         4.28316805955703    1.15758410552744    4.34185256735773
H         5.38464649112242    1.35244623936885    2.98301447057106
H         4.79855452700060    2.77911427326158    3.84717296101626
C         3.80474383238066    2.58752250373081    1.23271851092727
H         4.19817154558320    3.57911950409036    1.43217035228388
H         4.57163837749706    1.98364750117343    0.75566773597506
H         2.95616566901997    2.63423963145072    0.55495556178805
C         2.05447476333463    2.50040668105963    3.10021308360291
O         1.04357327061048    1.79110979858065    2.36925163152911
C         1.89596503987041    4.00237295106612    2.89203507489192
H         1.85549460800066    4.24099829269833    1.83525199156572
H         0.96737482431052    4.32990789816978    3.35109288845668
H         2.72471397297516    4.52854905404722    3.35635089448155
C         1.85074616968982    2.15356887150320    4.58092680617171
H         1.95200222175783    1.07958278827082    4.71805781996176
H         2.55888694400435    2.68163240606288    5.21080883743323
H         0.84024548192161    2.43138918586424    4.87045802862025
B         2.27820000000001   -1.33090000000000    0.17410000000000
O         2.90655186038884   -2.54219600576813    0.41360363082345
C         4.25586676989759   -2.48048464917263   -0.07546128465092
C         5.12154853120639   -2.06036228578991    1.11764007250216
H         4.76069438346765   -1.10440477719645    1.48866826233846
H         4.99761943481827   -2.79669279948905    1.90704121858811
H         6.17057535533166   -2.00052232865107    0.84787805636473
C         4.70401031277697   -3.84434689862293   -0.59006305756257
H         4.74030227823874   -4.54166682265314    0.24158781868739
H         5.69505479832018   -3.76143389080817   -1.02592914913826
H         4.01440837224053   -4.23304228750984   -1.33081591389069
C         4.15886717092841   -1.36163184443936   -1.15590505638548
O         3.05322807865800   -0.57882317618202   -0.67889599290143
C         5.40314701787775   -0.49259531322779   -1.30439639665461
H         6.25148027458459   -1.10893507795922   -1.58699596052891
H         5.22983992906558    0.24754218098327   -2.08022239863691
H         5.62241013177938    0.02798073684178   -0.37963916622262
C         3.74911831764087   -1.90793812262679   -2.53102952931536
H         2.85828822150336   -2.52144936324395   -2.42750657775641
H         3.50097403108055   -1.06920718661127   -3.17639828628074
H         4.55171854012917   -2.47940799467239   -2.98550882047296
H        -3.39754333566472   -3.97404065594325   -2.56298144353048
H        -5.18639935208959    1.47244657670696    1.30254031909056
C         0.23589999999999   -1.68139999999998    2.96029999999999
C        -1.00814751747219   -2.06503366305822    3.43657731443868
C         1.26453350741522   -1.79274860055980    3.89805372506354
C        -1.24132374863018   -2.45965611731072    4.77111475713175
O        -2.20805020003337   -2.16550452561771    2.77867206461171
C         1.06593943781701   -2.21997354607073    5.21400934719909
H         2.25844472156982   -1.55552431831066    3.55651802626373
N        -2.58036132215638   -2.77872672488658    4.89173405494818
C        -0.20292467162725   -2.54881598258101    5.68112999061473
C        -3.08303273843635   -2.59521105043745    3.71899985334088
O         2.08841075511548   -2.38216146852137    6.11268608375534
H        -0.35276580721150   -2.89443320246552    6.68893303223194
C        -4.49430928472158   -2.81516057534511    3.32736245795629
C         3.41563413809437   -2.38130243800979    5.62638896438137
H        -5.03039597315731   -3.24094569520611    4.16828373449780
H        -4.53911515409677   -3.48862678800416    2.47391996431374
H        -4.94877664674697   -1.86831208676479    3.04033601465011
H         4.03238902162072   -2.68068788552255    6.47202043556104
H         3.72058618311580   -1.38913889249898    5.28216592405767
H         3.53594054538697   -3.09757576039173    4.80863520044318
105
 energy: -155.491911310283 gnorm: 0.037041902353 xtb: 6.4.1 (1a32961)
N        -0.92765428443061   -2.08257263002212   -0.28603513297592
C        -2.20233261382469   -1.66706896802842   -0.38501869636898
C        -3.11598878883212   -2.33700315021317   -1.20906509623126
C        -2.71275389022222   -3.44421658339644   -1.92240720963366
C        -1.39137211855539   -3.86869708189280   -1.80020043068923
C        -0.54782597993719   -3.15201028944257   -0.97676178207984
H         0.48536468905820   -3.44486178454905   -0.85127593557543
H        -1.03289946019824   -4.73407205663966   -2.33219698086763
H        -4.13348780205347   -1.99396125878848   -1.29374340437591
C        -2.56466764165097   -0.50243710901460    0.40997431635735
N        -1.57742523350265    0.07584446897141    1.12368079544612
C        -1.87128544779328    1.13190135863020    1.87463288351340
C        -3.13998257311824    1.66697211176470    1.98059562751420
C        -4.17106786683648    1.07856809231995    1.25346817261380
C        -3.87361080669511   -0.00798020891177    0.45972145483243
H        -4.65799858008150   -0.48000326792024   -0.10736235041518
H        -3.32128439705471    2.51390281211122    2.62114964252176
H        -1.04004577253927    1.56404929199240    2.41019822726649
Ir        0.42150000000000   -0.81650000000000    0.91330000000000
H         0.87260000000000   -2.23030000000000    1.54050000000000
B         0.48076517768590    0.45969014295416   -0.72851531023492
O         0.10248872582489   -0.00510263423182   -1.97972156901402