12
 energy: -17.822875446762 gnorm: 0.034663565777 xtb: 6.4.1 (1a32961)
C        -1.32138000000000    0.69200000000000    0.00828000000000
O        -0.00379000000000    1.02002000000000    0.00858000000000
C         0.69662000000000   -0.14902000000000    0.00096000000000
C         2.16936000000000   -0.04472000000000   -0.00014000000000
C        -0.17144000000000   -1.22024000000000   -0.00356000000000
C        -1.47752000000000   -0.67425000000000    0.00022000000000
H        -2.01042000000000    1.52470000000000    0.01429000000000
H         2.49875000000000    0.99893000000000    0.01101000000000
H         2.58348000000000   -0.52288000000000   -0.89293000000000
H         2.58596000000000   -0.54247000000000    0.88086000000000
H         0.10630000000000   -2.26439000000000   -0.00953000000000
H        -2.41687000000000   -1.20901000000000   -0.00203000000000
12
 energy: -17.824070793572 gnorm: 0.011684889138 xtb: 6.4.1 (1a32961)
C        -1.32536160513701    0.68857029060974    0.00780251623617
O        -0.01288549047588    1.01455905951750    0.00819472540145
C         0.69447427696963   -0.14382195185930    0.00087928351815
C         2.17542987087186   -0.05491485701442    0.00002431401692
C        -0.16732699274668   -1.20488846481494   -0.00415110773935
C        -1.47503452590453   -0.66391021694483    0.00118816711429
H        -2.01974550340178    1.50670573882747    0.01353963979529
H         2.47926353231932    0.99048478908551    0.01138677367858
H         2.59267227315247   -0.53114496787440   -0.88819234210964
H         2.59453543376699   -0.55108459862181    0.87640938209100
H         0.10722577449536   -2.24166629288602   -0.01062690386608
H        -2.40419704390976   -1.20021852802451   -0.00044444813680
12
 energy: -17.824165830246 gnorm: 0.004241731187 xtb: 6.4.1 (1a32961)
C        -1.32333001507486    0.68853474423882    0.00814509559613
O        -0.01360920035445    1.01481884355555    0.00818076534597
C         0.69320443854469   -0.14052425164058    0.00079128414667
C         2.17776890277666   -0.05630718271456   -0.00016591578284
C        -0.16458966094757   -1.20090215115990   -0.00357183103508
C        -1.47415010658068   -0.66069410353886    0.00049190253629
H        -2.02187291574376    1.50040766158890    0.01434217930411
H         2.47586492746378    0.98885214486846    0.01102142704090
H         2.59018616097168   -0.53433230551582   -0.88755532056531
H         2.59184211883736   -0.55399535692299    0.87554764613136
H         0.10670593501768   -2.23673609562498   -0.00962532251084
H        -2.39897058491054   -1.20045194713405   -0.00159191020736
12
 energy: -17.824181214934 gnorm: 0.001400879189 xtb: 6.4.1 (1a32961)
C        -1.32205316670835    0.68945794910815    0.00768638758401
O        -0.01333666913505    1.01581987269049    0.00800072832293
C         0.69260723591758   -0.13877585260565    0.00067157473433
C         2.17890815830798   -0.05610711746438    0.00004336387138
C        -0.16353011118685   -1.20018974727688   -0.00426442401491
C        -1.47427233317347   -0.65973108342400    0.00139346959325
H        -2.02382843662468    1.49870203619330    0.01341389235942
H         2.47752172170847    0.98841213012011    0.01160776593651
H         2.58879458940205   -0.53490685583896   -0.88747500210484
H         2.59009638711613   -0.55514338976760    0.87571129738176
H         0.10542552608879   -2.23658695238161   -0.01079640041240
H        -2.39728290171261   -1.20228098935298    0.00001734674856
12
 energy: -17.824183024574 gnorm: 0.001052142651 xtb: 6.4.1 (1a32961)
C        -1.32121779739672    0.69061074833860    0.00847216199540
O        -0.01295808398142    1.01680927033656    0.00813530832512
C         0.69239104887751   -0.13755833258014    0.00082299854656
C         2.17952457251783   -0.05573268690800   -0.00033109626193
C        -0.16295389049502   -1.20006790491191   -0.00290604844657
C        -1.47445603806320   -0.65909691681172   -0.00011859630023
H        -2.02621603187550    1.49779958800537    0.01488007216285
H         2.48039653053585    0.98821490470881    0.01090635589951
H         2.58765460469274   -0.53547292260130   -0.88811692250601
H         2.58937997522753   -0.55531610629348    0.87560381179712
H         0.10371394295553   -2.23730585363981   -0.00864182028791
H        -2.39620883299513   -1.20421378764299   -0.00269622492392
12
 energy: -17.824184131414 gnorm: 0.000358494893 xtb: 6.4.1 (1a32961)
C        -1.32144326617286    0.69055480936502    0.00754010908407
O        -0.01298715180307    1.01665967387516    0.00792248083811
C         0.69258431220137   -0.13785481967994    0.00065614555002
C         2.17922242722241   -0.05581231773669    0.00007309313847
C        -0.16314379666766   -1.20011150429963   -0.00431754482159
C        -1.47437179159766   -0.65916869083462    0.00156326327005
H        -2.02617528284694    1.49791529816913    0.01310985619429
H         2.48027602879354    0.98824699945027    0.01197104647420
H         2.58822550555284   -0.53484475469883   -0.88786679325676
H         2.58951433912087   -0.55566935622100    0.87584104341976
H         0.10369618278283   -2.23728623800105   -0.01084325895852
H        -2.39634750658568   -1.20395909938783    0.00036055906791
12
 energy: -17.824184379642 gnorm: 0.000241962001 xtb: 6.4.1 (1a32961)
C        -1.32158064388622    0.69036871739298    0.00791575361456
O        -0.01305301042947    1.01647815513531    0.00796456234466
C         0.69267378444295   -0.13808466257725    0.00074617602463
C         2.17904516155707   -0.05592900003093   -0.00009840836549
C        -0.16324942708685   -1.20006256303991   -0.00368827944516
C        -1.47429341734198   -0.65920805922922    0.00086884661555
H        -2.02584576235101    1.49791290547917    0.01380841085847
H         2.47968207309888    0.98825093358776    0.01162217869879
H         2.58834590414843   -0.53491114542797   -0.88795339298528
H         2.58986189279057   -0.55550737712314    0.87559828059647
H         0.10391718157072   -2.23708134256578   -0.00985056827392
H        -2.39645373651308   -1.20355656160101   -0.00092355968326
