      -----------------------------------------------------------      
     |                   =====================                   |     
     |                           x T B                           |     
     |                   =====================                   |     
     |                         S. Grimme                         |     
     |          Mulliken Center for Theoretical Chemistry        |     
     |                    University of Bonn                     |     
      -----------------------------------------------------------      

   * xtb version 6.4.1 (1a32961) compiled by 'knkr256@seskscpg007.prim.scp' on 2021-10-19

   xtb is free software: you can redistribute it and/or modify it under
   the terms of the GNU Lesser General Public License as published by
   the Free Software Foundation, either version 3 of the License, or
   (at your option) any later version.
   
   xtb is distributed in the hope that it will be useful,
   but WITHOUT ANY WARRANTY; without even the implied warranty of
   MERCHANTABILITY or FITNESS FOR A PARTICULAR PURPOSE.  See the
   GNU Lesser General Public License for more details.
   
   Cite this work as:
   * C. Bannwarth, E. Caldeweyher, S. Ehlert, A. Hansen, P. Pracht,
     J. Seibert, S. Spicher, S. Grimme, WIREs Comput. Mol. Sci., 2020, 11,
     e01493. DOI: 10.1002/wcms.1493
   
   for GFN2-xTB:
   * C. Bannwarth, S. Ehlert and S. Grimme., J. Chem. Theory Comput., 2019,
     15, 1652-1671. DOI: 10.1021/acs.jctc.8b01176
   for GFN1-xTB:
   * S. Grimme, C. Bannwarth, P. Shushkov, J. Chem. Theory Comput., 2017,
     13, 1989-2009. DOI: 10.1021/acs.jctc.7b00118
   for GFN0-xTB:
   * P. Pracht, E. Caldeweyher, S. Ehlert, S. Grimme, ChemRxiv, 2019, preprint.
     DOI: 10.26434/chemrxiv.8326202.v1
   for GFN-FF:
   * S. Spicher and S. Grimme, Angew. Chem. Int. Ed., 2020, 59, 15665-15673.
     DOI: 10.1002/anie.202004239
   
   for ALPB and GBSA implicit solvation:
   * S. Ehlert, M. Stahn, S. Spicher, S. Grimme, J. Chem. Theory Comput.,
     2021, 17, 4250-4261. DOI: 10.1021/acs.jctc.1c00471
   
   for DFT-D4:
   * E. Caldeweyher, C. Bannwarth and S. Grimme, J. Chem. Phys., 2017,
     147, 034112. DOI: 10.1063/1.4993215
   * E. Caldeweyher, S. Ehlert, A. Hansen, H. Neugebauer, S. Spicher,
     C. Bannwarth and S. Grimme, J. Chem. Phys., 2019, 150, 154122.
     DOI: 10.1063/1.5090222
   * E. Caldeweyher, J.-M. Mewes, S. Ehlert and S. Grimme, Phys. Chem. Chem. Phys.
     2020, 22, 8499-8512. DOI: 10.1039/D0CP00502A
   
   for sTDA-xTB:
   * S. Grimme and C. Bannwarth, J. Chem. Phys., 2016, 145, 054103.
     DOI: 10.1063/1.4959605
   
   in the mass-spec context:
   * V. Asgeirsson, C. Bauer and S. Grimme, Chem. Sci., 2017, 8, 4879.
     DOI: 10.1039/c7sc00601b
   * J. Koopman and S. Grimme, ACS Omega 2019, 4, 12, 15120-15133.
     DOI: 10.1021/acsomega.9b02011
   
   for metadynamics refer to:
   * S. Grimme, J. Chem. Theory Comput., 2019, 155, 2847-2862
     DOI: 10.1021/acs.jctc.9b00143
   
   for SPH calculations refer to:
   * S. Spicher and S. Grimme, J. Chem. Theory Comput., 2021, 17, 1701-1714
     DOI: 10.1021/acs.jctc.0c01306
   
   with help from (in alphabetical order)
   P. Atkinson, C. Bannwarth, F. Bohle, G. Brandenburg, E. Caldeweyher
   M. Checinski, S. Dohm, S. Ehlert, S. Ehrlich, I. Gerasimov, J. Koopman
   C. Lavigne, S. Lehtola, F. März, M. Müller, F. Musil, H. Neugebauer
   J. Pisarek, C. Plett, P. Pracht, J. Seibert, P. Shushkov, S. Spicher
   M. Stahn, M. Steiner, T. Strunk, J. Stückrath, T. Rose, and J. Unsleber
   
 * started run on 2022/01/14 at 13:08:09.088     

           -------------------------------------------------
          |                Calculation Setup                |
           -------------------------------------------------

          program call               : xtb xtbopt.xyz --sp --alpb thf -P 6
          hostname                   : seskscpg007.prim.scp
          coordinate file            : xtbopt.xyz
          omp threads                :                     6
          number of atoms            :                   104
          number of electrons        :                   276
          charge                     :                     0
          spin                       :                   0.0
          first test random number   :      0.78305563356715

   ID    Z sym.   atoms
    1    7 N      1, 11, 94
    2    6 C      2-6, 10, 12-15, 23, 24, 28, 32, 34, 38, 44, 45, 49, 53, 55,
                  59, 65, 66, 70, 74, 76, 80, 86-91, 93, 100, 101
    3    1 H      7-9, 16-18, 20, 25-27, 29-31, 35-37, 39-41, 46-48, 50-52,
                  56-58, 60-62, 67-69, 71-73, 77-79, 81-85, 92, 95-98, 102-104
    4   77 Ir     19
    5    5 B      21, 42, 63
    6    8 O      22, 33, 43, 54, 64, 75, 99

molecular fragmentation (1/2 indicates fragments):
111111111111111111111111111111111111111111111111111111111111111111111111
11111111111112222222222222222222
# atoms in fragment 1/2:    85    19
 fragment masses (1/2) :      730.32      146.17
CMA distance (Bohr)    :  10.617
constraining FC (au)   :  0.0500

           -------------------------------------------------
          |                 G F N 2 - x T B                 |
           -------------------------------------------------

        Reference                      10.1021/acs.jctc.8b01176
      * Hamiltonian:
        H0-scaling (s, p, d)           1.850000    2.230000    2.230000
        zeta-weighting                 0.500000
      * Dispersion:
        s8                             2.700000
        a1                             0.520000
        a2                             5.000000
        s9                             5.000000
      * Repulsion:
        kExp                           1.500000    1.000000
        rExp                           1.000000
      * Coulomb:
        alpha                          2.000000
        third order                    shell-resolved
        anisotropic                    true
        a3                             3.000000
        a5                             4.000000
        cn-shift                       1.200000
        cn-exp                         4.000000
        max-rad                        5.000000

      * Solvation model:               ALPB
        Solvent                        thf
        Parameter file                 internal GFN2-xTB/ALPB
        Dielectric constant                7.6000E+00
        Reference state                gsolv [1 M gas/solution]
        Free energy shift                  5.3248E-03 Eh       3.3414E+00 kcal/mol
        Temperature                        2.9815E+02 K
        Density                            8.8300E-01 kg/L
        Solvent mass                       7.2106E+01 g/mol
        Interaction kernel             P16
        Born radius scaling (c1)           1.7311E+00
        Born radii integrator          GBOBC
        Born offset                        0.0000E+00 a0       0.0000E+00 AA
        H-bond correction              true
        Ion screening                  false
        Surface tension                    1.0000E-05 Eh       1.5569E+01 dyn/cm
        Grid points                               230 per atom
q/qsh data taken from xtbrestart
CAMM data taken from xtbrestart

          ...................................................
          :                      SETUP                      :
          :.................................................:
          :  # basis functions                 263          :
          :  # atomic orbitals                 262          :
          :  # shells                          156          :
          :  # electrons                       276          :
          :  max. iterations                   250          :
          :  Hamiltonian                  GFN2-xTB          :
          :  restarted?                       true          :
          :  GBSA solvation                   true          :
          :  PC potential                    false          :
          :  electronic temp.          300.0000000     K    :
          :  accuracy                    1.0000000          :
          :  -> integral cutoff          0.2500000E+02      :
          :  -> integral neglect         0.1000000E-07      :
          :  -> SCF convergence          0.1000000E-05 Eh   :
          :  -> wf. convergence          0.1000000E-03 e    :
          :  Broyden damping             0.4000000          :
          ...................................................

 iter      E             dE          RMSdq      gap      omega  full diag
   1   -153.3685756 -0.153369E+03  0.243E-05    0.89       0.0  T
   2   -153.3685756  0.264322E-11  0.218E-05    0.89     449.5  T
   3   -153.3685756  0.126477E-10  0.220E-05    0.89     445.8  T

   *** convergence criteria satisfied after 3 iterations ***

         #    Occupation            Energy/Eh            Energy/eV
      -------------------------------------------------------------
         1        2.0000           -0.7406018             -20.1528
       ...           ...                  ...                  ...
       132        2.0000           -0.3752187             -10.2102
       133        2.0000           -0.3478614              -9.4658
       134        2.0000           -0.3303654              -8.9897
       135        2.0000           -0.3201208              -8.7109
       136        2.0000           -0.3154993              -8.5852
       137        2.0000           -0.3080447              -8.3823
       138        2.0000           -0.3058455              -8.3225 (HOMO)
       139                         -0.2730556              -7.4302 (LUMO)
       140                         -0.2461201              -6.6973
       141                         -0.2430017              -6.6124
       142                         -0.2354137              -6.4059
       143                         -0.2072679              -5.6400
       ...                                ...                  ...
       262                          3.8303255             104.2285
      -------------------------------------------------------------
                  HL-Gap            0.0327899 Eh            0.8923 eV
             Fermi-level           -0.2894058 Eh           -7.8751 eV

 SCC (total)                   0 d,  0 h,  0 min,  0.090 sec
 SCC setup                      ...        0 min,  0.003 sec (  2.784%)
 Dispersion                     ...        0 min,  0.003 sec (  2.904%)
 classical contributions        ...        0 min,  0.000 sec (  0.164%)
 integral evaluation            ...        0 min,  0.010 sec ( 11.236%)
 iterations                     ...        0 min,  0.038 sec ( 41.474%)
 molecular gradient             ...        0 min,  0.037 sec ( 40.647%)
 printout                       ...        0 min,  0.001 sec (  0.718%)

         :::::::::::::::::::::::::::::::::::::::::::::::::::::
         ::                     SUMMARY                     ::
         :::::::::::::::::::::::::::::::::::::::::::::::::::::
         :: total energy            -151.424976446032 Eh    ::
         :: total w/o Gsasa/hb      -151.383213480799 Eh    ::
         :: gradient norm              0.029146292518 Eh/a0 ::
         :: HOMO-LUMO gap              0.892258719086 eV    ::
         ::.................................................::
         :: SCC energy              -153.368575621523 Eh    ::
         :: -> isotropic ES            0.260807146065 Eh    ::
         :: -> anisotropic ES          0.013899589259 Eh    ::
         :: -> anisotropic XC          0.051269256255 Eh    ::
         :: -> dispersion             -0.146550436222 Eh    ::
         :: -> Gsolv                  -0.053626384660 Eh    ::
         ::    -> Gelec               -0.011863419427 Eh    ::
         ::    -> Gsasa               -0.043886072300 Eh    ::
         ::    -> Ghb                 -0.003201708378 Eh    ::
         ::    -> Gshift               0.005324815444 Eh    ::
         :: repulsion energy           1.934954933048 Eh    ::
         :: add. restraining           0.000000000000 Eh    ::
         :: total charge               0.000000000005 e     ::
         :::::::::::::::::::::::::::::::::::::::::::::::::::::

           -------------------------------------------------
          |                Property Printout                |
           -------------------------------------------------

    * Orbital Energies and Occupations

         #    Occupation            Energy/Eh            Energy/eV
      -------------------------------------------------------------
         1        2.0000           -0.7406018             -20.1528
       ...           ...                  ...                  ...
       126        2.0000           -0.3881342             -10.5617
       127        2.0000           -0.3864513             -10.5159
       128        2.0000           -0.3856302             -10.4935
       129        2.0000           -0.3837653             -10.4428
       130        2.0000           -0.3815434             -10.3823
       131        2.0000           -0.3810108             -10.3678
       132        2.0000           -0.3752187             -10.2102
       133        2.0000           -0.3478614              -9.4658
       134        2.0000           -0.3303654              -8.9897
       135        2.0000           -0.3201208              -8.7109
       136        2.0000           -0.3154993              -8.5852
       137        2.0000           -0.3080447              -8.3823
       138        2.0000           -0.3058455              -8.3225 (HOMO)
       139                         -0.2730556              -7.4302 (LUMO)
       140                         -0.2461201              -6.6973
       141                         -0.2430017              -6.6124
       142                         -0.2354137              -6.4059
       143                         -0.2072679              -5.6400
       144                         -0.2024538              -5.5090
       145                         -0.1869094              -5.0861
       146                         -0.1794269              -4.8825
       147                         -0.1482537              -4.0342
       148                         -0.1248814              -3.3982
       149                         -0.1237018              -3.3661
       ...                                ...                  ...
       262                          3.8303255             104.2285
      -------------------------------------------------------------
                  HL-Gap            0.0327899 Eh            0.8923 eV
             Fermi-level           -0.2894058 Eh           -7.8751 eV

     #   Z          covCN         q      C6AA      α(0)
     1   7 N        2.515    -0.126    23.774     7.241
     2   6 C        2.956     0.081    26.183     8.393
     3   6 C        2.918    -0.040    29.004     8.831
     4   6 C        2.924    -0.022    28.544     8.761
     5   6 C        2.915    -0.043    29.064     8.840
     6   6 C        2.893     0.048    26.919     8.507
     7   1 H        0.926     0.052     2.296     2.370
     8   1 H        0.926     0.055     2.254     2.348
     9   1 H        0.926     0.046     2.375     2.410
    10   6 C        2.955     0.076    26.306     8.412
    11   7 N        2.570    -0.120    23.634     7.220
    12   6 C        2.892     0.045    26.995     8.518
    13   6 C        2.915    -0.045    29.112     8.848
    14   6 C        2.923    -0.024    28.605     8.771
    15   6 C        2.919    -0.046    29.137     8.852
    16   1 H        0.926     0.048     2.345     2.395
    17   1 H        0.926     0.049     2.333     2.388
    18   1 H        0.926     0.067     2.115     2.274
    19  77 Ir       5.919    -0.154   387.987    36.425
    20   1 H        0.977     0.091     1.864     2.134
    21   5 B        2.621     0.401    16.087     6.784
    22   8 O        1.638    -0.409    21.024     6.189
    23   6 C        3.835     0.130    18.444     6.110
    24   6 C        3.755    -0.121    22.883     6.821
    25   1 H        0.925     0.054     2.273     2.358
    26   1 H        0.925     0.045     2.377     2.411
    27   1 H        0.925     0.051     2.313     2.378
    28   6 C        3.755    -0.110    22.666     6.789
    29   1 H        0.925     0.048     2.348     2.396
    30   1 H        0.925     0.042     2.422     2.434
    31   1 H        0.925     0.029     2.594     2.519
    32   6 C        3.837     0.131    18.435     6.108
    33   8 O        1.637    -0.403    20.910     6.172
    34   6 C        3.755    -0.120    22.853     6.816
    35   1 H        0.925     0.049     2.328     2.386
    36   1 H        0.925     0.047     2.359     2.402
    37   1 H        0.925     0.049     2.334     2.389
    38   6 C        3.754    -0.119    22.840     6.815
    39   1 H        0.925     0.047     2.358     2.401
    40   1 H        0.925     0.052     2.293     2.368
    41   1 H        0.925     0.045     2.378     2.411
    42   5 B        2.624     0.406    16.017     6.767
    43   8 O        1.637    -0.380    20.476     6.108
    44   6 C        3.833     0.128    18.484     6.117
    45   6 C        3.755    -0.126    22.983     6.836
    46   1 H        0.925     0.053     2.285     2.364
    47   1 H        0.925     0.058     2.223     2.332
    48   1 H        0.925     0.050     2.324     2.384
    49   6 C        3.755    -0.122    22.903     6.824
    50   1 H        0.925     0.048     2.340     2.392
    51   1 H        0.925     0.046     2.371     2.408
    52   1 H        0.925     0.055     2.264     2.353
    53   6 C        3.831     0.127    18.492     6.118
    54   8 O        1.637    -0.384    20.549     6.119
    55   6 C        3.755    -0.123    22.920     6.826
    56   1 H        0.925     0.054     2.275     2.359
    57   1 H        0.925     0.053     2.286     2.364
    58   1 H        0.925     0.048     2.340     2.392
    59   6 C        3.755    -0.123    22.914     6.826
    60   1 H        0.925     0.044     2.402     2.423
    61   1 H        0.925     0.053     2.288     2.366
    62   1 H        0.925     0.049     2.336     2.390
    63   5 B        2.623     0.396    16.137     6.793
    64   8 O        1.637    -0.376    20.405     6.097
    65   6 C        3.831     0.125    18.531     6.125
    66   6 C        3.755    -0.129    23.040     6.844
    67   1 H        0.925     0.058     2.228     2.334
    68   1 H        0.925     0.054     2.274     2.358
    69   1 H        0.925     0.049     2.334     2.389
    70   6 C        3.755    -0.129    23.043     6.845
    71   1 H        0.925     0.060     2.201     2.320
    72   1 H        0.925     0.050     2.319     2.381
    73   1 H        0.925     0.053     2.288     2.366
    74   6 C        3.827     0.126    18.510     6.122
    75   8 O        1.637    -0.384    20.544     6.118
    76   6 C        3.755    -0.124    22.932     6.828
    77   1 H        0.925     0.050     2.317     2.380
    78   1 H        0.925     0.053     2.285     2.364
    79   1 H        0.925     0.054     2.273     2.358
    80   6 C        3.755    -0.123    22.922     6.827
    81   1 H        0.925     0.041     2.439     2.442
    82   1 H        0.925     0.052     2.300     2.372
    83   1 H        0.925     0.054     2.271     2.356
    84   1 H        0.926     0.052     2.294     2.368
    85   1 H        0.926     0.050     2.315     2.379
    86   6 C        2.835    -0.040    28.978     8.822
    87   6 C        2.960     0.003    27.962     8.673
    88   6 C        2.933    -0.045    29.105     8.848
    89   6 C        3.161     0.041    26.762     8.456
    90   6 C        3.758    -0.107    22.601     6.778
    91   6 C        2.905    -0.066    29.651     8.929
    92   1 H        0.926     0.060     2.195     2.317
    93   6 C        3.099     0.101    25.646     8.299
    94   7 N        1.871    -0.319    29.122     7.999
    95   1 H        0.925     0.057     2.234     2.337
    96   1 H        0.925     0.054     2.272     2.357
    97   1 H        0.925     0.041     2.438     2.442
    98   1 H        0.926     0.044     2.394     2.420
    99   8 O        1.720    -0.259    18.296     5.775
   100   6 C        3.184     0.225    22.897     7.809
   101   6 C        3.755    -0.145    23.346     6.890
   102   1 H        0.925     0.087     1.910     2.161
   103   1 H        0.925     0.084     1.940     2.178
   104   1 H        0.925     0.085     1.932     2.174

 Mol. C6AA /au·bohr⁶  :     115462.127387
 Mol. C8AA /au·bohr⁸  :    3056939.956753
 Mol. α(0) /au        :        525.896082


Wiberg/Mayer (AO) data.
largest (>0.10) Wiberg bond orders for each atom

 ---------------------------------------------------------------------------
     #   Z sym  total        # sym  WBO       # sym  WBO       # sym  WBO
 ---------------------------------------------------------------------------
     1   7 N    3.381 --     6 C    1.388     2 C    1.309    19 Ir   0.421
     2   6 C    3.978 --     3 C    1.355     1 N    1.309    10 C    1.086
     3   6 C    3.988 --     4 C    1.478     2 C    1.355     9 H    0.963
                             6 C    0.105
     4   6 C    3.983 --     3 C    1.478     5 C    1.387    84 H    0.969
     5   6 C    3.980 --     6 C    1.457     4 C    1.387     8 H    0.969
     6   6 C    3.978 --     5 C    1.457     1 N    1.388     7 H    0.957
                             3 C    0.105
     7   1 H    0.997 --     6 C    0.957
     8   1 H    0.996 --     5 C    0.969
     9   1 H    0.997 --     3 C    0.963
    10   6 C    3.979 --    15 C    1.357    11 N    1.306     2 C    1.086
    11   7 N    3.413 --    12 C    1.391    10 C    1.306    19 Ir   0.442
    12   6 C    3.975 --    13 C    1.454    11 N    1.391    18 H    0.951
                            15 C    0.105
    13   6 C    3.982 --    12 C    1.454    14 C    1.388    17 H    0.969
    14   6 C    3.983 --    15 C    1.475    13 C    1.388    85 H    0.969
    15   6 C    3.988 --    14 C    1.475    10 C    1.357    16 H    0.962
                            12 C    0.105
    16   1 H    0.997 --    15 C    0.962
    17   1 H    0.997 --    13 C    0.969
    18   1 H    0.995 --    12 C    0.951
    19  77 Ir   5.148 --    63 B    0.871    42 B    0.849    21 B    0.731
                            86 C    0.579    20 H    0.519    11 N    0.442
                             1 N    0.421
    20   1 H    0.989 --    19 Ir   0.519    86 C    0.358
    21   5 B    3.271 --    33 O    1.112    22 O    1.089    19 Ir   0.731
    22   8 O    2.191 --    21 B    1.089    23 C    0.943
    23   6 C    3.943 --    24 C    0.996    28 C    0.990    22 O    0.943
                            32 C    0.941
    24   6 C    3.994 --    23 C    0.996    26 H    0.984    27 H    0.983
                            25 H    0.983
    25   1 H    0.997 --    24 C    0.983
    26   1 H    0.997 --    24 C    0.984
    27   1 H    0.997 --    24 C    0.983
    28   6 C    3.996 --    23 C    0.990    31 H    0.985    29 H    0.984
                            30 H    0.984
    29   1 H    0.997 --    28 C    0.984
    30   1 H    0.998 --    28 C    0.984
    31   1 H    0.999 --    28 C    0.985
    32   6 C    3.940 --    38 C    0.997    34 C    0.991    23 C    0.941
                            33 O    0.939
    33   8 O    2.204 --    21 B    1.112    32 C    0.939
    34   6 C    3.994 --    32 C    0.991    36 H    0.984    35 H    0.982
                            37 H    0.982
    35   1 H    0.998 --    34 C    0.982
    36   1 H    0.997 --    34 C    0.984
    37   1 H    0.997 --    34 C    0.982
    38   6 C    3.994 --    32 C    0.997    41 H    0.984    39 H    0.983
                            40 H    0.982
    39   1 H    0.998 --    38 C    0.983
    40   1 H    0.997 --    38 C    0.982
    41   1 H    0.997 --    38 C    0.984
    42   5 B    3.338 --    43 O    1.120    54 O    1.108    19 Ir   0.849
    43   8 O    2.229 --    42 B    1.120    44 C    0.937
    44   6 C    3.936 --    45 C    0.996    49 C    0.991    53 C    0.937
                            43 O    0.937
    45   6 C    3.993 --    44 C    0.996    48 H    0.983    46 H    0.982
                            47 H    0.981
    46   1 H    0.997 --    45 C    0.982
    47   1 H    0.996 --    45 C    0.981
    48   1 H    0.996 --    45 C    0.983
    49   6 C    3.993 --    44 C    0.991    50 H    0.983    51 H    0.983
                            52 H    0.978
    50   1 H    0.997 --    49 C    0.983
    51   1 H    0.998 --    49 C    0.983
    52   1 H    0.997 --    49 C    0.978
    53   6 C    3.937 --    55 C    0.996    59 C    0.992    44 C    0.937
                            54 O    0.937
    54   8 O    2.224 --    42 B    1.108    53 C    0.937
    55   6 C    3.993 --    53 C    0.996    58 H    0.983    57 H    0.983
                            56 H    0.982
    56   1 H    0.997 --    55 C    0.982
    57   1 H    0.997 --    55 C    0.983
    58   1 H    0.996 --    55 C    0.983
    59   6 C    3.994 --    53 C    0.992    62 H    0.983    61 H    0.983
                            60 H    0.982
    60   1 H    0.998 --    59 C    0.982
    61   1 H    0.996 --    59 C    0.983
    62   1 H    0.997 --    59 C    0.983
    63   5 B    3.359 --    64 O    1.114    75 O    1.112    19 Ir   0.871
    64   8 O    2.231 --    63 B    1.114    65 C    0.940
    65   6 C    3.938 --    70 C    0.996    66 C    0.991    64 O    0.940
                            74 C    0.937
    66   6 C    3.992 --    65 C    0.991    69 H    0.983    68 H    0.983
                            67 H    0.979
    67   1 H    0.997 --    66 C    0.979
    68   1 H    0.997 --    66 C    0.983
    69   1 H    0.997 --    66 C    0.983
    70   6 C    3.992 --    65 C    0.996    72 H    0.984    73 H    0.982
                            71 H    0.982
    71   1 H    0.996 --    70 C    0.982
    72   1 H    0.996 --    70 C    0.984
    73   1 H    0.997 --    70 C    0.982
    74   6 C    3.936 --    76 C    0.996    80 C    0.991    65 C    0.937
                            75 O    0.937
    75   8 O    2.228 --    63 B    1.112    74 C    0.937
    76   6 C    3.993 --    74 C    0.996    77 H    0.983    79 H    0.982
                            78 H    0.982
    77   1 H    0.996 --    76 C    0.983
    78   1 H    0.997 --    76 C    0.982
    79   1 H    0.997 --    76 C    0.982
    80   6 C    3.995 --    74 C    0.991    81 H    0.984    83 H    0.983
                            82 H    0.983
    81   1 H    0.998 --    80 C    0.984
    82   1 H    0.997 --    80 C    0.983
    83   1 H    0.996 --    80 C    0.983
    84   1 H    0.996 --     4 C    0.969
    85   1 H    0.996 --    14 C    0.969
    86   6 C    3.948 --    87 C    1.408    88 C    1.340    19 Ir   0.579
                            20 H    0.358
    87   6 C    3.983 --    86 C    1.408    89 C    1.304    90 C    1.025
                            91 C    0.103
    88   6 C    3.985 --    91 C    1.473    86 C    1.340    92 H    0.955
    89   6 C    3.969 --    87 C    1.304    93 C    1.294    94 N    1.162
    90   6 C    3.995 --    87 C    1.025    95 H    0.975    96 H    0.972
                            97 H    0.967
    91   6 C    3.982 --    88 C    1.473    93 C    1.351    98 H    0.966
                            87 C    0.103
    92   1 H    0.996 --    88 C    0.955
    93   6 C    3.907 --    91 C    1.351    89 C    1.294    99 O    1.047
    94   7 N    3.013 --   100 C    1.631    89 C    1.162    99 O    0.107
    95   1 H    0.996 --    90 C    0.975
    96   1 H    0.997 --    90 C    0.972
    97   1 H    0.998 --    90 C    0.967
    98   1 H    0.997 --    91 C    0.966
    99   8 O    2.359 --   100 C    1.083    93 C    1.047    94 N    0.107
   100   6 C    3.918 --    94 N    1.631    99 O    1.083   101 C    1.033
   101   6 C    3.986 --   100 C    1.033   102 H    0.979   103 H    0.962
                           104 H    0.960
   102   1 H    0.992 --   101 C    0.979
   103   1 H    0.990 --   101 C    0.962
   104   1 H    0.990 --   101 C    0.960
 ---------------------------------------------------------------------------

Topologies differ in total number of bonds
Writing topology from bond orders to xtbtopo.mol

molecular dipole:
                 x           y           z       tot (Debye)
 q only:       -0.046       0.451      -1.202
   full:       -0.873       0.939      -1.339       4.712
molecular quadrupole (traceless):
                xx          xy          yy          xz          yz          zz
 q only:       12.198       2.701      -4.781      -4.669      10.697      -7.417
  q+dip:       10.032       0.004     -10.911      -0.807      16.041       0.879
   full:        7.553       0.731      -6.943      -2.902      12.956      -0.611


           -------------------------------------------------
          | TOTAL ENERGY             -151.424976446032 Eh   |
          | GRADIENT NORM               0.029146292518 Eh/α |
          | HOMO-LUMO GAP               0.892258719086 eV   |
           -------------------------------------------------

------------------------------------------------------------------------
 * finished run on 2022/01/14 at 13:08:09.209     
------------------------------------------------------------------------
 total:
 * wall-time:     0 d,  0 h,  0 min,  0.120 sec
 *  cpu-time:     0 d,  0 h,  0 min,  0.700 sec
 * ratio c/w:     5.819 speedup
 SCF:
 * wall-time:     0 d,  0 h,  0 min,  0.092 sec
 *  cpu-time:     0 d,  0 h,  0 min,  0.546 sec
 * ratio c/w:     5.935 speedup

