104
 energy: -151.407725078021 gnorm: 0.075804548060 xtb: 6.4.1 (1a32961)
N        -0.96509999999997   -2.11530000000002   -0.24089999999996
C        -2.24700000000003   -1.69839999999999   -0.36219999999996
C        -3.14040000000001   -2.36819999999995   -1.21199999999997
C        -2.70219999999998   -3.47559999999999   -1.93050000000000
C        -1.37780000000006   -3.89879999999999   -1.78760000000000
C        -0.54289999999999   -3.18670000000003   -0.93509999999993
H         0.49810000000001   -3.45630000000000   -0.78940000000000
H        -0.99569999999999   -4.76030000000002   -2.32770000000001
H        -4.16499999999999   -2.02890000000001   -1.31830000000000
C        -2.62130000000000   -0.50950000000001    0.44100000000003
N        -1.62600000000001    0.07330000000001    1.16020000000002
C        -1.89680000000002    1.15240000000001    1.91690000000003
C        -3.17229999999996    1.70330000000001    1.99649999999999
C        -4.20510000000000    1.11740000000001    1.26270000000001
C        -3.92609999999998    0.00250000000001    0.47819999999999
H        -4.71959999999999   -0.46420000000000   -0.09519999999998
H        -3.34629999999999    2.57510000000000    2.62070000000001
H        -1.04450000000000    1.57420000000000    2.43690000000000
Ir        0.42150000000000   -0.81650000000000    0.91330000000000
H         0.87260000000000   -2.23030000000000    1.54050000000000
B         0.50670000000000    0.41559999999996   -0.81540000000001
O         0.19500000000000   -0.04699999999997   -2.09149999999999
C         0.00649999999997    1.10040000000001   -2.95429999999999
C         0.49020000000000    0.74739999999998   -4.35780000000001
H         1.51610000000000    0.37379999999999   -4.33700000000000
H         0.44730000000000    1.62239999999998   -5.01670000000002
H        -0.14739999999998   -0.03390000000000   -4.78430000000001
C        -1.50120000000004    1.39559999999999   -2.96669999999998
H        -1.75369999999999    2.21460000000006   -3.64850000000001
H        -2.03199999999998    0.49449999999996   -3.28930000000000
H        -1.85170000000000    1.65210000000000   -1.96220000000001
C         0.84229999999998    2.20670000000000   -2.22040000000000
O         0.75200000000000    1.78260000000001   -0.83690000000001
C         2.32930000000000    2.18619999999998   -2.59900000000000
H         2.74130000000001    1.18499999999999   -2.45750000000000
H         2.48870000000000    2.51299999999999   -3.63179999999999
H         2.87200000000000    2.86269999999999   -1.93200000000000
C         0.28439999999997    3.62290000000000   -2.33660000000000
H        -0.72649999999999    3.69040000000000   -1.92910000000000
H         0.92130000000000    4.31480000000001   -1.77610000000000
H         0.26430000000000    3.94810000000002   -3.38319999999998
B         1.56300000000000    0.60960000000000    1.84839999999999
O         2.92780000000000    0.55230000000000    2.15020000000001
C         3.36329999999999    1.88659999999997    2.50260000000001
C         4.53139999999998    1.78590000000004    3.47739999999999
H         4.27910000000000    1.16090000000000    4.33690000000001
H         5.39390000000002    1.33789999999999    2.97340000000000
H         4.82390000000000    2.77869999999997    3.83820000000000
C         3.79699999999998    2.56850000000001    1.19669999999998
H         4.20020000000000    3.57090000000001    1.37680000000000
H         4.56740000000000    1.95560000000000    0.72110000000001
H         2.95240000000000    2.63260000000000    0.50539999999998
C         2.05039999999999    2.50090000000002    3.09319999999999
O         1.03750000000000    1.81620000000003    2.31909999999998
C         1.89100000000000    4.00449999999997    2.88650000000002
H         1.87290000000000    4.25440000000000    1.82409999999997
H         0.94940000000000    4.34259999999999    3.33170000000000
H         2.71080000000002    4.55150000000000    3.36630000000001
C         1.82470000000002    2.13200000000001    4.56519999999996
H         1.92610000000000    1.05329999999997    4.71320000000000
H         2.52609999999998    2.65280000000000    5.22540000000000
H         0.80630000000000    2.41580000000000    4.84900000000000
B         2.27820000000000   -1.33090000000000    0.17410000000000
O         2.89460000000000   -2.57739999999999    0.38450000000000
C         4.26930000000000   -2.48200000000000   -0.07210000000000
C         5.10900000000000   -2.05380000000002    1.14010000000000
H         4.76350000000000   -1.08740000000000    1.51750000000000
H         4.98050000000000   -2.79470000000000    1.93590000000000
H         6.17420000000000   -1.99290000000001    0.89300000000000
C         4.71950000000001   -3.84660000000001   -0.58470000000002
H         4.75280000000000   -4.56129999999999    0.24419999999999
H         5.72330000000000   -3.78370000000000   -1.02010000000001
H         4.03500000000001   -4.23599999999999   -1.34169999999997
C         4.16440000000000   -1.36220000000001   -1.16300000000001
O         3.08520000000000   -0.55029999999999   -0.65400000000000
C         5.40720000000001   -0.48870000000000   -1.31549999999999
H         6.27320000000001   -1.09010000000000   -1.61530000000000
H         5.23300000000000    0.26930000000000   -2.08590000000000
H         5.64269999999999    0.02650000000000   -0.38240000000001
C         3.71799999999999   -1.89829999999999   -2.53110000000001
H         2.82530000000000   -2.52159999999999   -2.42740000000000
H         3.46090000000001   -1.05250000000000   -3.17549999999998
H         4.50569999999999   -2.48290000000000   -3.01790000000001
H        -3.38500000000002   -4.00130000000002   -2.59309999999998
H        -5.21400000000000    1.52080000000000    1.29960000000000
C         0.23589999999997   -1.68140000000000    2.96030000000000
C        -0.94018969508393   -2.31975928486013    3.39165719173730
C         1.26239594775480   -1.49817205201562    3.90493647230421
C        -1.06688278032619   -2.59332533338411    4.75790901886851
C        -2.05340391477228   -2.84724985205455    2.54030168222155
C         1.15729182819589   -1.79803425738973    5.25696779512115
H         2.21786906545907   -1.14046877042314    3.54527063486659
C        -0.04624536880941   -2.33707080104633    5.67498551945483
N        -2.09560013648922   -3.22563721564332    5.42845028617947
H        -2.62182973864849   -3.57420328332819    3.12114542528273
H        -1.66207677662093   -3.32922985038810    1.64626311758570
H        -2.73902260905338   -2.05330762043146    2.24444172176235
H         1.98352669735565   -1.66427273527582    5.93900032894279
O        -0.45500873699224   -2.80607454823038    6.89291645745331
C        -1.69457963364733   -3.32841682175153    6.65522659100142
C        -2.43946509788920   -3.97090185802314    7.75789199465935
H        -3.47731316335377   -4.09580423697246    7.45328877844282
H        -2.37839914201334   -3.36304887276245    8.66038418358851
H        -2.01032891562233   -4.95112226526574    7.97210218226991
104
 energy: -151.414873441004 gnorm: 0.044865218699 xtb: 6.4.1 (1a32961)
N        -0.95339441825176   -2.07604263888077   -0.28738539457952
C        -2.23240841977348   -1.66727006669681   -0.39716808946052
C        -3.13239122093224   -2.35279036997735   -1.22129711804795
C        -2.70474086349578   -3.46205056402661   -1.92739224169470
C        -1.38451036351480   -3.88041356888820   -1.78945509587209
C        -0.54988544521679   -3.15542500367843   -0.96107517690390
H         0.48066075837181   -3.44276905011115   -0.80082893522914
H        -1.01061488447309   -4.74680376945004   -2.31627329174248
H        -4.15601732506970   -2.02468643393486   -1.31638102922973
C        -2.60609441582539   -0.49533053298135    0.41140653508931
N        -1.61570815797305    0.07872850901246    1.13112149025869
C        -1.89670030080791    1.14056700538162    1.88967865120652
C        -3.16467217283610    1.68768134793254    1.98135354965164
C        -4.19566009505041    1.10547509601067    1.25286003528333
C        -3.91225217501431    0.00590774886867    0.46304318352551
H        -4.70534124798664   -0.46164343877489   -0.10002426728573
H        -3.34041039995827    2.54828889069496    2.61166406339248
H        -1.05448796091256    1.55590923951987    2.42241032697453
Ir        0.42150000000000   -0.81650000000000    0.91330000000000
H         0.87260000000000   -2.23030000000000    1.54050000000000
B         0.49025453202728    0.42590164182965   -0.78853537127609
O         0.17662404182891   -0.03403932783264   -2.06129687415064
C         0.01143138749770    1.09693510532417   -2.94304269510969
C         0.49057281521177    0.74714160257164   -4.34804771003195
H         1.50954836299763    0.37052459517975   -4.32676444209978
H         0.44573157331079    1.62238777014337   -4.99682924927004
H        -0.14812514827715   -0.02884645027374   -4.76848654018337
C        -1.49279587449181    1.39925842505357   -2.97002069107669
H        -1.73129547032498    2.21207350205021   -3.65434991540454
H        -2.02263114606307    0.50206707001155   -3.28992705007710
H        -1.83967990996771    1.65415162788112   -1.96854394078852
C         0.83303584918397    2.20721579592997   -2.21222756892494
O         0.75620236563887    1.78148308383313   -0.83476130860965
C         2.31560752010264    2.19067649187438   -2.59974423633745
H         2.71963856480749    1.19153425932734   -2.44950906635467
H         2.46750621618244    2.51195159199220   -3.62951225393441
H         2.85786191785416    2.86538890565485   -1.93834032444985
C         0.28143073816409    3.62325714410113   -2.33984646842928
H        -0.72191692904243    3.69198610683600   -1.92770529379287
H         0.92076962328525    4.30704229201865   -1.78301165220590
H         0.26389622186588    3.93573158549921   -3.38406551053705
B         1.56606933189701    0.63022250489304    1.83407741637937
O         2.92512812927644    0.57328825996869    2.12409102553823
C         3.36376553590656    1.89121109332316    2.50662494246134
C         4.53210486773929    1.78940955580262    3.47904465170523
H         4.27863592229216    1.16064469284556    4.32857711381579
H         5.38745698239458    1.34487671403743    2.97199873098409
H         4.81557142539992    2.77877100393546    3.83700955974734
C         3.80105738183296    2.57847859523284    1.20927270158378
H         4.20273399819978    3.57368938992751    1.39400205658959
H         4.56450358902068    1.96549818606103    0.73311242632827
H         2.95279485671669    2.63029387373464    0.52799873568820
C         2.05281774957718    2.50714651671238    3.08745585687000
O         1.04044671602113    1.81461033790702    2.33060459665840
C         1.89412147865550    4.00928899005478    2.88889663171165
H         1.86894708801904    4.25311127113096    1.83067926483142
H         0.95632362175358    4.33748843104815    3.33543194133780
H         2.71453755934580    4.54494765383900    3.36585347027353
C         1.83152269956624    2.14320137755366    4.56007244771400
H         1.93170371175605    1.06787922883675    4.69953481764873
H         2.53240796296301    2.66449859390228    5.20977916804307
H         0.81702558847743    2.42186495795015    4.84439580712405
B         2.27819999999999   -1.33090000000001    0.17410000000000
O         2.90114149171395   -2.56175097895193    0.39124767309150
C         4.26561446643111   -2.48359210018159   -0.07713201929121
C         5.11002938559685   -2.05870602713633    1.12876906869741
H         4.75390974310969   -1.09849205945316    1.49949868078657
H         4.97817327070144   -2.79375847357467    1.92193579798808
H         6.16784317254576   -1.99869842197247    0.87711582135778
C         4.72030393488614   -3.84577417776902   -0.58703707081733
H         4.74975773690204   -4.55023150650829    0.24293933412878
H         5.71812660997638   -3.77437900204376   -1.01916273865455
H         4.03466393921983   -4.23307403591278   -1.33588610555917
C         4.16660214743569   -1.36070247454686   -1.15752589283042
O         3.07459060026513   -0.56390520445379   -0.66182089641795
C         5.40986931968450   -0.49232327990649   -1.31507004121362
H         6.26622663845639   -1.09789210490743   -1.61074248792030
H         5.23143733676689    0.25884191411183   -2.08330003418820
H         5.63743386180146    0.02223603829139   -0.38599753866572
C         3.72950675334807   -1.89974879154389   -2.52571573646072
H         2.83732449712865   -2.51494488898055   -2.41711550293796
H         3.47223141586744   -1.05806743613152   -3.16733913637557
H         4.51939946860360   -2.47693027733955   -3.00358722376606
H        -3.38650426975199   -3.99309471760203   -2.57758589314409
H        -5.20070861391915    1.50362209399445    1.29788491056403
C         0.23589999999997   -1.68139999999999    2.96030000000000
C        -0.93762172804494   -2.31978134524249    3.39298224404793
C         1.26325428793090   -1.49413669178829    3.90663757968562
C        -1.06375470420511   -2.59051673733972    4.75773059456540
C        -2.04958870299213   -2.85062795768002    2.54269382044397
C         1.15921333320980   -1.79059743013629    5.25663895369161
H         2.21556203078488   -1.13619137273171    3.54750514359930
C        -0.04176112091391   -2.33028515201303    5.67583434043484
N        -2.09070294111886   -3.22434906926612    5.43386487400825
H        -2.61570249550927   -3.57593796399591    3.12380735486760
H        -1.65866683659811   -3.33291419330494    1.65197846505316
H        -2.73533681776178   -2.06000344754723    2.24598470699968
H         1.98440870869978   -1.65420399774423    5.93779814083359
O        -0.45191940415404   -2.79905924699841    6.89384044807097
C        -1.68983073233512   -3.32339346596422    6.65555578971094
C        -2.43390374318882   -3.96588100899616    7.76062820675000
H        -3.46934167299631   -4.09337424778557    7.45792993325244
H        -2.37333586068439   -3.35856701701589    8.66102995035810
H        -2.00348986379373   -4.94382721084586    7.97627630338016
104
 energy: -151.416959683491 gnorm: 0.034595099953 xtb: 6.4.1 (1a32961)
N        -0.94433874952202   -2.05986493959151   -0.30865445345627
C        -2.21891390844694   -1.64738956415969   -0.42009747138809
C        -3.12413726189732   -2.33263669596514   -1.23709788628331
C        -2.70731637353623   -3.44447355857061   -1.93696969076418
C        -1.38756437753630   -3.86253165681816   -1.80340031765780
C        -0.55267204814103   -3.13611638696182   -0.98211686608390
H         0.47660203915957   -3.42628804980456   -0.83044638701314
H        -1.02278311990523   -4.73593119819474   -2.31857534379665
H        -4.14720824616523   -2.00795623313726   -1.32205140985897
C        -2.58892947519113   -0.48453645020259    0.38535190166676
N        -1.60379895907643    0.07723865946738    1.11568741393396
C        -1.89176395332629    1.13044596712320    1.87247109398786
C        -3.15534162705466    1.67815131315420    1.96761807938504
C        -4.18563936999195    1.09980401849765    1.23602127773494
C        -3.89553924554867    0.01428755883160    0.43659293523848
H        -4.68595846207354   -0.45403563670402   -0.12468066147183
H        -3.33373974240157    2.52808601124964    2.60614872380193
H        -1.05702780290764    1.54453624953768    2.41460950624313
Ir        0.42150000000000   -0.81650000000000    0.91330000000000
H         0.87260000000000   -2.23030000000000    1.54050000000000
B         0.49797469800171    0.43886813766083   -0.76516019175529
O         0.15972474753302   -0.02199021429310   -2.02960355755295
C         0.00926373858517    1.09540856619048   -2.92244227058861
C         0.49279973391603    0.73999291956348   -4.32492351624575
H         1.50785219490007    0.35967786025253   -4.30477931095367
H         0.44782926595958    1.61812767379065   -4.96392168503335
H        -0.14997851556655   -0.02981267023157   -4.74343119753349
C        -1.49323618218663    1.40663986912153   -2.96931894174199
H        -1.71308230519997    2.21527459080469   -3.65960912379439
H        -2.02203264253856    0.51180031712296   -3.29019029241003
H        -1.84296495202536    1.66491370803328   -1.97216318205101
C         0.82712699647763    2.20887400319754   -2.19931219648266
O         0.76275370813640    1.78827257600424   -0.82641088592707
C         2.30700666950688    2.19668126298929   -2.59705010530924
H         2.70733282676289    1.19899822167539   -2.43921871803161
H         2.44575868413521    2.50997651582736   -3.62770666373324
H         2.84934833645596    2.87579564870299   -1.94414502284013
C         0.27294847133681    3.62320106259583   -2.33694944541084
H        -0.72614769777971    3.69733720173188   -1.92143331984812
H         0.91716984179446    4.30560700507328   -1.78954132589899
H         0.25626737162637    3.91847894607501   -3.38251835005969
B         1.56376131133581    0.63129241742041    1.85663908893665
O         2.92435966274510    0.58765494513437    2.10753718924888
C         3.36230710141769    1.89547812813599    2.50594135223638
C         4.52840990820071    1.79060310467344    3.48143739789236
H         4.27634936531095    1.15703469712302    4.32465790073003
H         5.38117485269010    1.35248180805462    2.97063244765853
H         4.80255369339022    2.77876730707508    3.83890129960371
C         3.80596126261653    2.59716823072474    1.21870464409491
H         4.20504094360405    3.58796611339152    1.41152914011351
H         4.56814580592839    1.98643231883328    0.74265553158846
H         2.95666010762185    2.64340474227663    0.54169543089439
C         2.05415876237792    2.51115877943011    3.08665564987577
O         1.04304027138618    1.80962059927040    2.34608396696218
C         1.89719729505109    4.01318993935033    2.88587582695071
H         1.86415283853727    4.25551500888477    1.82994568626582
H         0.96439459120097    4.33703873270793    3.33877250508904
H         2.72082515387523    4.53985850326760    3.35881408826055
C         1.84161545366125    2.15761495227395    4.56371460523702
H         1.94241263787667    1.08421557198597    4.69981495846296
H         2.54537117293410    2.68310941002336    5.20096567043735
H         0.82938251975890    2.43482437680381    4.84821427536041
B         2.27819999999998   -1.33090000000002    0.17410000000000
O         2.90370476906299   -2.54934435962011    0.40004022090814
C         4.25869697485449   -2.48204963100080   -0.07737490519335
C         5.11361045799703   -2.06097262132313    1.12187865420346
H         4.75226887874544   -1.10367797804624    1.48894059893750
H         4.98171414182091   -2.79413062051071    1.91295582051350
H         6.16568890076142   -2.00235300928242    0.86172131916462
C         4.71254654240840   -3.84398230746412   -0.58965540862326
H         4.74385696677242   -4.54159077084889    0.24196967110289
H         5.70632617569227   -3.76348663227464   -1.02027854189181
H         4.02690942147576   -4.23274362855300   -1.33393602913428
C         4.16232061730802   -1.36086269620838   -1.15542635698025
O         3.06233903202575   -0.57381177471335   -0.67062962757048
C         5.40718216567845   -0.49440578138081   -1.30870829888160
H         6.25565435098621   -1.10736333526608   -1.59846596686370
H         5.23029866731657    0.24990715741193   -2.07976763401014
H         5.63091298204066    0.02222557682635   -0.38277632026195
C         3.74046484685278   -1.90373278860385   -2.52736588015095
H         2.84923665581287   -2.51579772970465   -2.41777593838056
H         3.48702056128167   -1.06391246070805   -3.16921348278763
H         4.53667160339937   -2.47639968051501   -2.99204327962011
H        -3.39453210694430   -3.98467483803699   -2.56935697572398
H        -5.19117153153751    1.48785539674715    1.29252220249135
C         0.23589999999997   -1.68139999999998    2.96030000000000
C        -0.93412191612343   -2.32117953979613    3.39328452647391
C         1.26353449904854   -1.48401281790557    3.90605785729208
C        -1.05951410020357   -2.58798887911413    4.75747870673114
C        -2.04274117964308   -2.85034035518906    2.53640287364500
C         1.16087376599684   -1.77707672829136    5.25528807767318
H         2.21119220580056   -1.11953321204891    3.54459123125093
C        -0.03725322266670   -2.32027033598768    5.67642199380334
N        -2.08410962302211   -3.22320538148208    5.43952953111378
H        -2.60789915915227   -3.57778983622871    3.11430124595358
H        -1.64814401633976   -3.32777650026606    1.64522479452125
H        -2.72834576840009   -2.06017383356603    2.24043817572493
H         1.98463533105318   -1.63383703011695    5.93629302240860
O        -0.44689530139412   -2.78638968590903    6.89617342930971
C        -1.68245314900591   -3.31552681312901    6.65810725658863
C        -2.42367773901866   -3.95700221717059    7.76723728344874
H        -3.45768714922437   -4.08894152097526    7.46594884302016
H        -2.36338511501767   -3.34700769874589    8.66464244275969
H        -1.98902912785354   -4.93204138304846    7.98487276713216
104
 energy: -151.417895440938 gnorm: 0.032741184857 xtb: 6.4.1 (1a32961)
N        -0.93152674448457   -2.04608967210507   -0.33574423669019
C        -2.20577924461332   -1.63070045320212   -0.44493095073854
C        -3.11713035587695   -2.31582649938827   -1.25659705560965
C        -2.70968294354505   -3.43413927105048   -1.95026427071548
C        -1.38804704818763   -3.85281331277250   -1.82327220522716
C        -0.54691453107125   -3.12210124648577   -1.01150383795678
H         0.48277788603615   -3.41560170085240   -0.86694670539625
H        -1.02953237830110   -4.73028661989077   -2.33449090023203
H        -4.13913416141215   -1.98736613818106   -1.33727543029453
C        -2.57382702297164   -0.47312949025595    0.36175612351555
N        -1.59160382345840    0.08093553679812    1.10276367587674
C        -1.88457358109217    1.12859295689324    1.86405744874528
C        -3.14852907856742    1.67442684367976    1.96106201369849
C        -4.17767476177236    1.09988020487307    1.22181070124826
C        -3.88144228113684    0.02503712592739    0.41137943248748
H        -4.66736890803375   -0.43850579379451   -0.15968226071830
H        -3.32988302775180    2.51700579408993    2.60724984461895
H        -1.05466846070368    1.54136456087640    2.41514870378929
Ir        0.42150000000000   -0.81649999999999    0.91330000000000
H         0.87260000000000   -2.23030000000000    1.54050000000000
B         0.48993342176648    0.45642442694256   -0.74357242062441
O         0.14150589974445   -0.01056465472183   -2.00291558300146
C         0.00291631711522    1.09730902422403   -2.90295669846882
C         0.49407140109941    0.73080278478025   -4.30091088531597
H         1.50661116380607    0.34456211478599   -4.27524694998495
H         0.45579005498716    1.60894569971021   -4.93950963297513
H        -0.15229186317252   -0.03585626992416   -4.71917579305745
C        -1.49857231168724    1.41644437802511   -2.96745374383548
H        -1.70283671855429    2.22270903518617   -3.66461557169462
H        -2.02774605288884    0.52280968019071   -3.29037163160003
H        -1.85718444102951    1.68147646835804   -1.97542724661465
C         0.82183435308548    2.21355500925352   -2.18519241875961
O         0.76666627307457    1.80080332221969   -0.81312708644152
C         2.30003416740270    2.20288282672345   -2.59291072494760
H         2.70204029644427    1.20705648971771   -2.42827167492510
H         2.42873541383490    2.50739314528265   -3.62703354397536
H         2.84379106861912    2.88954957159496   -1.94943217412872
C         0.26517939684400    3.62707208985697   -2.33136259473992
H        -0.73187799439093    3.70532409954651   -1.91211212654504
H         0.91304164318498    4.31425026200919   -1.79454786854244
H         0.24419261341474    3.90856115830120   -3.38031075173203
B         1.56701431111852    0.64931102753457    1.83828612820540
O         2.92437646427112    0.60355555039722    2.08569553722349
C         3.36239705618555    1.90329492091334    2.50214745396108
C         4.52510480517547    1.79001669337373    3.48276557684327
H         4.27200530725932    1.14898756383574    4.31990997433616
H         5.38004395085852    1.35864907616090    2.97021252258200
H         4.79387324914986    2.77651685728960    3.84777805360584
C         3.81368752669224    2.61899339015539    1.22400294540288
H         4.20904980018369    3.60792385234071    1.42999411280511
H         4.57974015684057    2.01362780307511    0.74742254427048
H         2.96715225329160    2.66892579615405    0.54426620223720
C         2.05377759410023    2.51542167879402    3.08595632921504
O         1.04120214623195    1.81013566420637    2.35480840805569
C         1.89573203617564    4.01816325708786    2.88381410029965
H         1.85500042367504    4.26043808500581    1.82824522193228
H         0.96737243533756    4.34288684876538    3.34471687826808
H         2.72487671462943    4.54104604249419    3.35037492335167
C         1.85246643374725    2.17024849734516    4.56794851847956
H         1.95522697714396    1.09780518592183    4.70775110316806
H         2.56036086287087    2.70109866605830    5.19545537321854
H         0.84192995568879    2.44856778226454    4.85648547034986
B         2.27819999999996   -1.33090000000003    0.17409999999999
O         2.90512671917637   -2.54260014955165    0.41041777741787
C         4.25358901696104   -2.48110489336704   -0.07582758933707
C         5.11871117495646   -2.06171978184325    1.11796728848667
H         4.75887108434328   -1.10442122419575    1.48595403727302
H         4.99010588912196   -2.79524871402118    1.90886336519020
H         6.16805317362236   -2.00448740976134    0.84936394250003
C         4.70337618174975   -3.84485900357799   -0.58999021122143
H         4.73844716088439   -4.54057183082239    0.24270806032251
H         5.69493667411900   -3.76108219006059   -1.02386808647152
H         4.01526256676574   -4.23452635564456   -1.33129687227439
C         4.15826969009466   -1.36192815036451   -1.15592292993063
O         3.05264942551205   -0.57973310249228   -0.68090845477959
C         5.40347111931656   -0.49371436140092   -1.30301946767612
H         6.25109901432832   -1.11101240650199   -1.58471560582034
H         5.23137000384519    0.24651344786814   -2.07876199870854
H         5.62204550024205    0.02630415984006   -0.37795887061644
C         3.75048558379040   -1.90846523547319   -2.53183858853806
H         2.85979220318122   -2.52167588364669   -2.42792877947362
H         3.50274658668797   -1.06981887413633   -3.17724887825699
H         4.55363790437372   -2.47976641604415   -2.98493145586908
H        -3.40282184040798   -3.97827461606906   -2.57228718005146
H        -5.18479154033766    1.48188828090533    1.28308545378501
C         0.23589999999996   -1.68139999999996    2.96030000000000
C        -0.93173744375509   -2.32230627394737    3.39399904681707
C         1.26332595886046   -1.47464731981038    3.90496183185459
C        -1.05619992622082   -2.58563990365200    4.75846543482796
C        -2.03606678156468   -2.85095360106821    2.53078003370271
C         1.16061767233657   -1.76120693251699    5.25494698344298
H         2.20933359002624   -1.10889018327112    3.54123450866340
C        -0.03484717164147   -2.30907343431200    5.67723184041873
N        -2.07799419649138   -3.22250147531521    5.44477750594120
H        -2.60189949052462   -3.58225201983196    3.10313548654979
H        -1.63547586296504   -3.32268901685484    1.63887688811754
H        -2.72112376149749   -2.06019061991803    2.23479726121437
H         1.98271869953376   -1.60953402019493    5.93644979223273
O        -0.44235371370412   -2.77081046877522    6.89938133197456
C        -1.67524011876079   -3.30657118748931    6.66300152858165
C        -2.41175486122033   -3.94626570273915    7.77683388145399
H        -3.44544584937972   -4.08428621562060    7.47757530540874
H        -2.35178525767015   -3.33140860368706    8.67086336769043
H        -1.97118232309362   -4.91798790144154    7.99747051514866
104
 energy: -151.418854045417 gnorm: 0.032452974569 xtb: 6.4.1 (1a32961)
N        -0.91876634971639   -2.03996075719972   -0.36017921373093
C        -2.19177781644225   -1.61644969085699   -0.47124709967901
C        -3.10726630469207   -2.29579777672104   -1.28483734955165
C        -2.70958440877391   -3.42066473283470   -1.97319733817548
C        -1.38647123466648   -3.84172173795057   -1.85316581274175
C        -0.53878495102144   -3.11153693345988   -1.04638541899588
H         0.49303204057145   -3.40607413620693   -0.91377958768275
H        -1.03377178671903   -4.72118279895427   -2.36488901861519
H        -4.12639199092051   -1.95784874236770   -1.36634964536982
C        -2.55749053441882   -0.46238511055197    0.33784087930777
N        -1.57884770983827    0.08002580814881    1.09596571471594
C        -1.87590252578494    1.12504284046892    1.86151988959207
C        -3.14009032618443    1.67134707810791    1.95536960304107
C        -4.16607677999232    1.10612831595473    1.20108697213929
C        -3.86339860585449    0.04350179310881    0.37732569501685
H        -4.64263460844285   -0.40787917353033   -0.21365092207197
H        -3.32489693837954    2.50583026790656    2.61109652207381
H        -1.05071573362400    1.53550719503767    2.42249475402566
Ir        0.42150000000000   -0.81649999999999    0.91329999999999
H         0.87260000000000   -2.23030000000000    1.54050000000000
B         0.48473550480449    0.47815557339069   -0.71953203029909
O         0.11629003781588    0.00594238226389   -1.97128511579857
C        -0.00796830575859    1.10361929589776   -2.87881090032876
C         0.49349465040218    0.71839404389555   -4.26932744652986
H         1.50185471923008    0.32090914346324   -4.22935337268470
H         0.47071971597622    1.59217829459073   -4.91549698599904