      -----------------------------------------------------------      
     |                   =====================                   |     
     |                           x T B                           |     
     |                   =====================                   |     
     |                         S. Grimme                         |     
     |          Mulliken Center for Theoretical Chemistry        |     
     |                    University of Bonn                     |     
      -----------------------------------------------------------      

   * xtb version 6.4.1 (1a32961) compiled by 'knkr256@seskscpg007.prim.scp' on 2021-10-19

   xtb is free software: you can redistribute it and/or modify it under
   the terms of the GNU Lesser General Public License as published by
   the Free Software Foundation, either version 3 of the License, or
   (at your option) any later version.
   
   xtb is distributed in the hope that it will be useful,
   but WITHOUT ANY WARRANTY; without even the implied warranty of
   MERCHANTABILITY or FITNESS FOR A PARTICULAR PURPOSE.  See the
   GNU Lesser General Public License for more details.
   
   Cite this work as:
   * C. Bannwarth, E. Caldeweyher, S. Ehlert, A. Hansen, P. Pracht,
     J. Seibert, S. Spicher, S. Grimme, WIREs Comput. Mol. Sci., 2020, 11,
     e01493. DOI: 10.1002/wcms.1493
   
   for GFN2-xTB:
   * C. Bannwarth, S. Ehlert and S. Grimme., J. Chem. Theory Comput., 2019,
     15, 1652-1671. DOI: 10.1021/acs.jctc.8b01176
   for GFN1-xTB:
   * S. Grimme, C. Bannwarth, P. Shushkov, J. Chem. Theory Comput., 2017,
     13, 1989-2009. DOI: 10.1021/acs.jctc.7b00118
   for GFN0-xTB:
   * P. Pracht, E. Caldeweyher, S. Ehlert, S. Grimme, ChemRxiv, 2019, preprint.
     DOI: 10.26434/chemrxiv.8326202.v1
   for GFN-FF:
   * S. Spicher and S. Grimme, Angew. Chem. Int. Ed., 2020, 59, 15665-15673.
     DOI: 10.1002/anie.202004239
   
   for ALPB and GBSA implicit solvation:
   * S. Ehlert, M. Stahn, S. Spicher, S. Grimme, J. Chem. Theory Comput.,
     2021, 17, 4250-4261. DOI: 10.1021/acs.jctc.1c00471
   
   for DFT-D4:
   * E. Caldeweyher, C. Bannwarth and S. Grimme, J. Chem. Phys., 2017,
     147, 034112. DOI: 10.1063/1.4993215
   * E. Caldeweyher, S. Ehlert, A. Hansen, H. Neugebauer, S. Spicher,
     C. Bannwarth and S. Grimme, J. Chem. Phys., 2019, 150, 154122.
     DOI: 10.1063/1.5090222
   * E. Caldeweyher, J.-M. Mewes, S. Ehlert and S. Grimme, Phys. Chem. Chem. Phys.
     2020, 22, 8499-8512. DOI: 10.1039/D0CP00502A
   
   for sTDA-xTB:
   * S. Grimme and C. Bannwarth, J. Chem. Phys., 2016, 145, 054103.
     DOI: 10.1063/1.4959605
   
   in the mass-spec context:
   * V. Asgeirsson, C. Bauer and S. Grimme, Chem. Sci., 2017, 8, 4879.
     DOI: 10.1039/c7sc00601b
   * J. Koopman and S. Grimme, ACS Omega 2019, 4, 12, 15120-15133.
     DOI: 10.1021/acsomega.9b02011
   
   for metadynamics refer to:
   * S. Grimme, J. Chem. Theory Comput., 2019, 155, 2847-2862
     DOI: 10.1021/acs.jctc.9b00143
   
   for SPH calculations refer to:
   * S. Spicher and S. Grimme, J. Chem. Theory Comput., 2021, 17, 1701-1714
     DOI: 10.1021/acs.jctc.0c01306
   
   with help from (in alphabetical order)
   P. Atkinson, C. Bannwarth, F. Bohle, G. Brandenburg, E. Caldeweyher
   M. Checinski, S. Dohm, S. Ehlert, S. Ehrlich, I. Gerasimov, J. Koopman
   C. Lavigne, S. Lehtola, F. März, M. Müller, F. Musil, H. Neugebauer
   J. Pisarek, C. Plett, P. Pracht, J. Seibert, P. Shushkov, S. Spicher
   M. Stahn, M. Steiner, T. Strunk, J. Stückrath, T. Rose, and J. Unsleber
   
 * started run on 2022/01/14 at 13:15:39.608     

           -------------------------------------------------
          |                Calculation Setup                |
           -------------------------------------------------

          program call               : xtb xtbopt.xyz --sp --alpb thf -P 6
          hostname                   : seskscpg007.prim.scp
          coordinate file            : xtbopt.xyz
          omp threads                :                     6
          number of atoms            :                    94
          number of electrons        :                   250
          charge                     :                     0
          spin                       :                   0.0
          first test random number   :      0.17742633963061

   ID    Z sym.   atoms
    1    7 N      1, 11, 87, 88
    2    6 C      2-6, 10, 12-15, 23, 24, 28, 32, 34, 38, 44, 45, 49, 53, 55,
                  59, 65, 66, 70, 74, 76, 80, 86, 89-91
    3    1 H      7-9, 16-18, 20, 25-27, 29-31, 35-37, 39-41, 46-48, 50-52,
                  56-58, 60-62, 67-69, 71-73, 77-79, 81-85, 92-94
    4   77 Ir     19
    5    5 B      21, 42, 63
    6    8 O      22, 33, 43, 54, 64, 75

molecular fragmentation (1/2 indicates fragments):
111111111111111111111111111111111111111111111111111111111111111111111111
1111111111111222222222
# atoms in fragment 1/2:    85     9
 fragment masses (1/2) :      730.32       79.08
CMA distance (Bohr)    :   8.378
constraining FC (au)   :  0.0500

           -------------------------------------------------
          |                 G F N 2 - x T B                 |
           -------------------------------------------------

        Reference                      10.1021/acs.jctc.8b01176
      * Hamiltonian:
        H0-scaling (s, p, d)           1.850000    2.230000    2.230000
        zeta-weighting                 0.500000
      * Dispersion:
        s8                             2.700000
        a1                             0.520000
        a2                             5.000000
        s9                             5.000000
      * Repulsion:
        kExp                           1.500000    1.000000
        rExp                           1.000000
      * Coulomb:
        alpha                          2.000000
        third order                    shell-resolved
        anisotropic                    true
        a3                             3.000000
        a5                             4.000000
        cn-shift                       1.200000
        cn-exp                         4.000000
        max-rad                        5.000000

      * Solvation model:               ALPB
        Solvent                        thf
        Parameter file                 internal GFN2-xTB/ALPB
        Dielectric constant                7.6000E+00
        Reference state                gsolv [1 M gas/solution]
        Free energy shift                  5.3248E-03 Eh       3.3414E+00 kcal/mol
        Temperature                        2.9815E+02 K
        Density                            8.8300E-01 kg/L
        Solvent mass                       7.2106E+01 g/mol
        Interaction kernel             P16
        Born radius scaling (c1)           1.7311E+00
        Born radii integrator          GBOBC
        Born offset                        0.0000E+00 a0       0.0000E+00 AA
        H-bond correction              true
        Ion screening                  false
        Surface tension                    1.0000E-05 Eh       1.5569E+01 dyn/cm
        Grid points                               230 per atom
q/qsh data taken from xtbrestart
CAMM data taken from xtbrestart

          ...................................................
          :                      SETUP                      :
          :.................................................:
          :  # basis functions                 238          :
          :  # atomic orbitals                 237          :
          :  # shells                          141          :
          :  # electrons                       250          :
          :  max. iterations                   250          :
          :  Hamiltonian                  GFN2-xTB          :
          :  restarted?                       true          :
          :  GBSA solvation                   true          :
          :  PC potential                    false          :
          :  electronic temp.          300.0000000     K    :
          :  accuracy                    1.0000000          :
          :  -> integral cutoff          0.2500000E+02      :
          :  -> integral neglect         0.1000000E-07      :
          :  -> SCF convergence          0.1000000E-05 Eh   :
          :  -> wf. convergence          0.1000000E-03 e    :
          :  Broyden damping             0.4000000          :
          ...................................................

 iter      E             dE          RMSdq      gap      omega  full diag
   1   -138.7033086 -0.138703E+03  0.383E-05    0.92       0.0  T
   2   -138.7033086 -0.457590E-11  0.376E-05    0.92     274.0  T
   3   -138.7033086 -0.734701E-10  0.217E-05    0.92     476.1  T

   *** convergence criteria satisfied after 3 iterations ***

         #    Occupation            Energy/Eh            Energy/eV
      -------------------------------------------------------------
         1        2.0000           -0.6733867             -18.3238
       ...           ...                  ...                  ...
       119        2.0000           -0.3492861              -9.5046
       120        2.0000           -0.3452677              -9.3952
       121        2.0000           -0.3329391              -9.0597
       122        2.0000           -0.3232829              -8.7970
       123        2.0000           -0.3187566              -8.6738
       124        2.0000           -0.3126816              -8.5085
       125        2.0000           -0.3082335              -8.3875 (HOMO)
       126                         -0.2743909              -7.4666 (LUMO)
       127                         -0.2509516              -6.8287
       128                         -0.2471066              -6.7241
       129                         -0.2443567              -6.6493
       130                         -0.2357382              -6.4148
       ...                                ...                  ...
       237                          3.7094914             100.9404
      -------------------------------------------------------------
                  HL-Gap            0.0338427 Eh            0.9209 eV
             Fermi-level           -0.2913078 Eh           -7.9269 eV

 SCC (total)                   0 d,  0 h,  0 min,  0.082 sec
 SCC setup                      ...        0 min,  0.004 sec (  5.034%)
 Dispersion                     ...        0 min,  0.003 sec (  3.354%)
 classical contributions        ...        0 min,  0.000 sec (  0.186%)
 integral evaluation            ...        0 min,  0.010 sec ( 12.157%)
 iterations                     ...        0 min,  0.034 sec ( 41.712%)
 molecular gradient             ...        0 min,  0.030 sec ( 36.645%)
 printout                       ...        0 min,  0.001 sec (  0.816%)

         :::::::::::::::::::::::::::::::::::::::::::::::::::::
         ::                     SUMMARY                     ::
         :::::::::::::::::::::::::::::::::::::::::::::::::::::
         :: total energy            -136.975901067006 Eh    ::
         :: total w/o Gsasa/hb      -136.937013200719 Eh    ::
         :: gradient norm              0.041049349380 Eh/a0 ::
         :: HOMO-LUMO gap              0.920906210437 eV    ::
         ::.................................................::
         :: SCC energy              -138.703308611504 Eh    ::
         :: -> isotropic ES            0.251143782129 Eh    ::
         :: -> anisotropic ES          0.015057911265 Eh    ::
         :: -> anisotropic XC          0.054944724924 Eh    ::
         :: -> dispersion             -0.128812706619 Eh    ::
         :: -> Gsolv                  -0.050444149815 Eh    ::
         ::    -> Gelec               -0.011556283528 Eh    ::
         ::    -> Gsasa               -0.041675510001 Eh    ::
         ::    -> Ghb                 -0.002537171730 Eh    ::
         ::    -> Gshift               0.005324815444 Eh    ::
         :: repulsion energy           1.719968130457 Eh    ::
         :: add. restraining           0.000000000000 Eh    ::
         :: total charge               0.000000000341 e     ::
         :::::::::::::::::::::::::::::::::::::::::::::::::::::

           -------------------------------------------------
          |                Property Printout                |
           -------------------------------------------------

    * Orbital Energies and Occupations

         #    Occupation            Energy/Eh            Energy/eV
      -------------------------------------------------------------
         1        2.0000           -0.6733867             -18.3238
       ...           ...                  ...                  ...
       113        2.0000           -0.4009978             -10.9117
       114        2.0000           -0.3870650             -10.5326
       115        2.0000           -0.3849595             -10.4753
       116        2.0000           -0.3831435             -10.4259
       117        2.0000           -0.3813685             -10.3776
       118        2.0000           -0.3797647             -10.3339
       119        2.0000           -0.3492861              -9.5046
       120        2.0000           -0.3452677              -9.3952
       121        2.0000           -0.3329391              -9.0597
       122        2.0000           -0.3232829              -8.7970
       123        2.0000           -0.3187566              -8.6738
       124        2.0000           -0.3126816              -8.5085
       125        2.0000           -0.3082335              -8.3875 (HOMO)
       126                         -0.2743909              -7.4666 (LUMO)
       127                         -0.2509516              -6.8287
       128                         -0.2471066              -6.7241
       129                         -0.2443567              -6.6493
       130                         -0.2357382              -6.4148
       131                         -0.2038820              -5.5479
       132                         -0.1873595              -5.0983
       133                         -0.1501583              -4.0860
       134                         -0.1251549              -3.4056
       135                         -0.1213009              -3.3008
       136                         -0.1147903              -3.1236
       ...                                ...                  ...
       237                          3.7094914             100.9404
      -------------------------------------------------------------
                  HL-Gap            0.0338427 Eh            0.9209 eV
             Fermi-level           -0.2913078 Eh           -7.9269 eV

     #   Z          covCN         q      C6AA      α(0)
     1   7 N        2.556    -0.112    23.472     7.195
     2   6 C        2.956     0.079    26.241     8.402
     3   6 C        2.918    -0.043    29.070     8.842
     4   6 C        2.923    -0.022    28.554     8.763
     5   6 C        2.915    -0.044    29.085     8.844
     6   6 C        2.893     0.048    26.916     8.506
     7   1 H        0.926     0.054     2.269     2.356
     8   1 H        0.926     0.058     2.228     2.334
     9   1 H        0.926     0.051     2.308     2.376
    10   6 C        2.955     0.075    26.321     8.415
    11   7 N        2.554    -0.121    23.671     7.226
    12   6 C        2.891     0.041    27.084     8.532
    13   6 C        2.915    -0.045    29.119     8.849
    14   6 C        2.922    -0.026    28.642     8.776
    15   6 C        2.919    -0.045    29.107     8.847
    16   1 H        0.926     0.049     2.327     2.385
    17   1 H        0.926     0.052     2.295     2.369
    18   1 H        0.926     0.074     2.046     2.237
    19  77 Ir       5.955    -0.158   388.466    36.448
    20   1 H        0.977     0.086     1.916     2.163
    21   5 B        2.634     0.405    15.982     6.750
    22   8 O        1.638    -0.402    20.888     6.169
    23   6 C        3.835     0.129    18.465     6.114
    24   6 C        3.755    -0.123    22.911     6.825
    25   1 H        0.925     0.054     2.265     2.354
    26   1 H        0.925     0.046     2.372     2.409
    27   1 H        0.925     0.053     2.280     2.361
    28   6 C        3.754    -0.111    22.685     6.791
    29   1 H        0.925     0.049     2.333     2.389
    30   1 H        0.925     0.044     2.397     2.421
    31   1 H        0.925     0.028     2.616     2.529
    32   6 C        3.842     0.130    18.443     6.109
    33   8 O        1.637    -0.403    20.914     6.173
    34   6 C        3.755    -0.123    22.917     6.826
    35   1 H        0.925     0.054     2.273     2.358
    36   1 H        0.925     0.047     2.357     2.401
    37   1 H        0.925     0.050     2.315     2.380
    38   6 C        3.754    -0.121    22.883     6.821
    39   1 H        0.925     0.047     2.357     2.401
    40   1 H        0.925     0.055     2.264     2.353
    41   1 H        0.925     0.047     2.361     2.403
    42   5 B        2.627     0.404    16.023     6.766
    43   8 O        1.637    -0.377    20.411     6.098
    44   6 C        3.839     0.128    18.478     6.115
    45   6 C        3.755    -0.127    22.995     6.838
    46   1 H        0.925     0.058     2.224     2.332
    47   1 H        0.925     0.056     2.242     2.342
    48   1 H        0.925     0.050     2.320     2.382
    49   6 C        3.755    -0.123    22.908     6.825
    50   1 H        0.925     0.050     2.321     2.383
    51   1 H        0.925     0.049     2.333     2.389
    52   1 H        0.925     0.052     2.301     2.372
    53   6 C        3.834     0.128    18.482     6.116
    54   8 O        1.637    -0.386    20.596     6.126
    55   6 C        3.755    -0.125    22.954     6.832
    56   1 H        0.925     0.055     2.259     2.350
    57   1 H        0.925     0.054     2.274     2.358
    58   1 H        0.925     0.049     2.326     2.385
    59   6 C        3.755    -0.123    22.919     6.826
    60   1 H        0.925     0.049     2.336     2.390
    61   1 H        0.925     0.053     2.283     2.363
    62   1 H        0.925     0.046     2.374     2.410
    63   5 B        2.627     0.405    16.012     6.763
    64   8 O        1.637    -0.379    20.449     6.104
    65   6 C        3.833     0.125    18.527     6.124
    66   6 C        3.755    -0.133    23.104     6.854
    67   1 H        0.925     0.061     2.187     2.313
    68   1 H        0.925     0.055     2.263     2.352
    69   1 H        0.925     0.051     2.302     2.373
    70   6 C        3.755    -0.129    23.030     6.843
    71   1 H        0.925     0.060     2.200     2.320
    72   1 H        0.925     0.051     2.302     2.373
    73   1 H        0.925     0.052     2.298     2.371
    74   6 C        3.829     0.127    18.504     6.121
    75   8 O        1.637    -0.375    20.381     6.094
    76   6 C        3.755    -0.125    22.961     6.832
    77   1 H        0.925     0.052     2.301     2.372
    78   1 H        0.925     0.055     2.263     2.353
    79   1 H        0.925     0.057     2.235     2.338
    80   6 C        3.755    -0.122    22.905     6.824
    81   1 H        0.925     0.041     2.434     2.440
    82   1 H        0.925     0.050     2.320     2.382
    83   1 H        0.925     0.055     2.255     2.349
    84   1 H        0.926     0.055     2.253     2.347
    85   1 H        0.926     0.052     2.300     2.372
    86   6 C        2.810     0.140    24.940     8.182
    87   7 N        1.843    -0.254    27.471     7.768
    88   7 N        1.834    -0.252    27.405     7.758
    89   6 C        2.919     0.071    26.411     8.428
    90   6 C        2.924     0.075    26.329     8.415
    91   6 C        2.904    -0.067    29.669     8.931
    92   1 H        0.925     0.035     2.518     2.481
    93   1 H        0.925     0.043     2.413     2.429
    94   1 H        0.926     0.044     2.392     2.419

 Mol. C6AA /au·bohr⁶  :      94823.447397
 Mol. C8AA /au·bohr⁸  :    2532309.963209
 Mol. α(0) /au        :        476.618109


Wiberg/Mayer (AO) data.
largest (>0.10) Wiberg bond orders for each atom

 ---------------------------------------------------------------------------
     #   Z sym  total        # sym  WBO       # sym  WBO       # sym  WBO
 ---------------------------------------------------------------------------
     1   7 N    3.419 --     6 C    1.390     2 C    1.316    19 Ir   0.450
     2   6 C    3.979 --     3 C    1.348     1 N    1.316    10 C    1.089
     3   6 C    3.987 --     4 C    1.483     2 C    1.348     9 H    0.962
                             6 C    0.107
     4   6 C    3.979 --     3 C    1.483     5 C    1.384    84 H    0.968
     5   6 C    3.978 --     6 C    1.459     4 C    1.384     8 H    0.968
     6   6 C    3.978 --     5 C    1.459     1 N    1.390     7 H    0.957
                             3 C    0.107
     7   1 H    0.997 --     6 C    0.957
     8   1 H    0.996 --     5 C    0.968
     9   1 H    0.997 --     3 C    0.962
    10   6 C    3.978 --    15 C    1.355    11 N    1.303     2 C    1.089
    11   7 N    3.413 --    12 C    1.383    10 C    1.303    19 Ir   0.437
    12   6 C    3.973 --    13 C    1.459    11 N    1.383    18 H    0.947
                            15 C    0.105
    13   6 C    3.981 --    12 C    1.459    14 C    1.385    17 H    0.969
    14   6 C    3.982 --    15 C    1.477    13 C    1.385    85 H    0.969
    15   6 C    3.989 --    14 C    1.477    10 C    1.355    16 H    0.962
                            12 C    0.105
    16   1 H    0.997 --    15 C    0.962
    17   1 H    0.996 --    13 C    0.969
    18   1 H    0.994 --    12 C    0.947
    19  77 Ir   5.215 --    63 B    0.859    42 B    0.851    21 B    0.732
                            86 C    0.602    20 H    0.514     1 N    0.450
                            11 N    0.437
    20   1 H    0.990 --    19 Ir   0.514    86 C    0.348
    21   5 B    3.281 --    33 O    1.113    22 O    1.099    19 Ir   0.732
    22   8 O    2.201 --    21 B    1.099    23 C    0.941
    23   6 C    3.942 --    24 C    0.996    28 C    0.990    32 C    0.941
                            22 O    0.941
    24   6 C    3.993 --    23 C    0.996    26 H    0.984    27 H    0.983
                            25 H    0.982
    25   1 H    0.997 --    24 C    0.982
    26   1 H    0.997 --    24 C    0.984
    27   1 H    0.997 --    24 C    0.983
    28   6 C    3.996 --    23 C    0.990    31 H    0.985    29 H    0.984
                            30 H    0.984
    29   1 H    0.997 --    28 C    0.984
    30   1 H    0.998 --    28 C    0.984
    31   1 H    0.999 --    28 C    0.985
    32   6 C    3.938 --    38 C    0.997    34 C    0.991    23 C    0.941
                            33 O    0.937
    33   8 O    2.201 --    21 B    1.113    32 C    0.937
    34   6 C    3.993 --    32 C    0.991    36 H    0.984    37 H    0.982
                            35 H    0.981
    35   1 H    0.997 --    34 C    0.981
    36   1 H    0.997 --    34 C    0.984
    37   1 H    0.997 --    34 C    0.982
    38   6 C    3.994 --    32 C    0.997    41 H    0.984    39 H    0.983
                            40 H    0.983
    39   1 H    0.998 --    38 C    0.983
    40   1 H    0.997 --    38 C    0.983
    41   1 H    0.997 --    38 C    0.984
    42   5 B    3.338 --    43 O    1.129    54 O    1.102    19 Ir   0.851
    43   8 O    2.234 --    42 B    1.129    44 C    0.935
    44   6 C    3.936 --    45 C    0.997    49 C    0.991    53 C    0.940
                            43 O    0.935
    45   6 C    3.992 --    44 C    0.997    48 H    0.983    46 H    0.982
                            47 H    0.982
    46   1 H    0.996 --    45 C    0.982
    47   1 H    0.997 --    45 C    0.982
    48   1 H    0.996 --    45 C    0.983
    49   6 C    3.994 --    44 C    0.991    50 H    0.983    51 H    0.982
                            52 H    0.981
    50   1 H    0.997 --    49 C    0.983
    51   1 H    0.997 --    49 C    0.982
    52   1 H    0.997 --    49 C    0.981
    53   6 C    3.937 --    55 C    0.997    59 C    0.991    44 C    0.940
                            54 O    0.933
    54   8 O    2.222 --    42 B    1.102    53 C    0.933
    55   6 C    3.993 --    53 C    0.997    58 H    0.983    57 H    0.983
                            56 H    0.982
    56   1 H    0.997 --    55 C    0.982
    57   1 H    0.997 --    55 C    0.983
    58   1 H    0.996 --    55 C    0.983
    59   6 C    3.994 --    53 C    0.991    62 H    0.984    61 H    0.983
                            60 H    0.982
    60   1 H    0.998 --    59 C    0.982
    61   1 H    0.996 --    59 C    0.983
    62   1 H    0.998 --    59 C    0.984
    63   5 B    3.365 --    75 O    1.125    64 O    1.114    19 Ir   0.859
    64   8 O    2.229 --    63 B    1.114    65 C    0.936
    65   6 C    3.935 --    70 C    0.997    66 C    0.991    74 C    0.938
                            64 O    0.936
    66   6 C    3.992 --    65 C    0.991    69 H    0.983    68 H    0.982
                            67 H    0.978
    67   1 H    0.996 --    66 C    0.978
    68   1 H    0.997 --    66 C    0.982
    69   1 H    0.996 --    66 C    0.983
    70   6 C    3.992 --    65 C    0.997    72 H    0.983    73 H    0.982
                            71 H    0.982
    71   1 H    0.996 --    70 C    0.982
    72   1 H    0.996 --    70 C    0.983
    73   1 H    0.997 --    70 C    0.982
    74   6 C    3.934 --    76 C    0.996    80 C    0.991    65 C    0.938
                            75 O    0.935
    75   8 O    2.240 --    63 B    1.125    74 C    0.935
    76   6 C    3.992 --    74 C    0.996    77 H    0.983    78 H    0.982
                            79 H    0.982
    77   1 H    0.996 --    76 C    0.983
    78   1 H    0.997 --    76 C    0.982
    79   1 H    0.997 --    76 C    0.982
    80   6 C    3.995 --    74 C    0.991    81 H    0.984    83 H    0.983
                            82 H    0.983
    81   1 H    0.998 --    80 C    0.984
    82   1 H    0.997 --    80 C    0.983
    83   1 H    0.996 --    80 C    0.983
    84   1 H    0.996 --     4 C    0.968
    85   1 H    0.996 --    14 C    0.969
    86   6 C    3.909 --    88 N    1.361    87 N    1.357    19 Ir   0.602
                            20 H    0.348
    87   7 N    3.085 --    89 C    1.441    86 C    1.357
    88   7 N    3.083 --    90 C    1.449    86 C    1.361
    89   6 C    3.976 --    87 N    1.441    91 C    1.419    92 H    0.961
    90   6 C    3.973 --    88 N    1.449    91 C    1.409    93 H    0.960
    91   6 C    3.985 --    89 C    1.419    90 C    1.409    94 H    0.968
    92   1 H    0.998 --    89 C    0.961
    93   1 H    0.998 --    90 C    0.960
    94   1 H    0.995 --    91 C    0.968
 ---------------------------------------------------------------------------

Topologies differ in total number of bonds
Writing topology from bond orders to xtbtopo.mol

molecular dipole:
                 x           y           z       tot (Debye)
 q only:        0.078       0.503      -1.037
   full:       -1.219       0.548      -0.942       4.156
molecular quadrupole (traceless):
                xx          xy          yy          xz          yz          zz
 q only:       12.817       3.003      -4.757       1.738      12.046      -8.060
  q+dip:        9.998       4.751      -6.953      -0.277      12.854      -3.044
   full:        7.069       4.939      -5.034      -2.306      10.006      -2.035


           -------------------------------------------------
          | TOTAL ENERGY             -136.975901067006 Eh   |
          | GRADIENT NORM               0.041049349380 Eh/α |
          | HOMO-LUMO GAP               0.920906210437 eV   |
           -------------------------------------------------

------------------------------------------------------------------------
 * finished run on 2022/01/14 at 13:15:39.718     
------------------------------------------------------------------------
 total:
 * wall-time:     0 d,  0 h,  0 min,  0.110 sec
 *  cpu-time:     0 d,  0 h,  0 min,  0.642 sec
 * ratio c/w:     5.821 speedup
 SCF:
 * wall-time:     0 d,  0 h,  0 min,  0.083 sec
 *  cpu-time:     0 d,  0 h,  0 min,  0.497 sec
 * ratio c/w:     5.958 speedup

