94
 energy: -136.958553785099 gnorm: 0.079127360907 xtb: 6.4.1 (1a32961)
N        -0.96510000000000   -2.11530000000000   -0.24090000000000
C        -2.24700000000000   -1.69840000000000   -0.36220000000000
C        -3.14040000000000   -2.36820000000000   -1.21200000000000
C        -2.70220000000000   -3.47560000000000   -1.93050000000000
C        -1.37780000000000   -3.89880000000000   -1.78760000000000
C        -0.54290000000000   -3.18670000000000   -0.93510000000000
H         0.49810000000000   -3.45630000000000   -0.78940000000000
H        -0.99570000000000   -4.76030000000000   -2.32770000000000
H        -4.16500000000000   -2.02890000000000   -1.31830000000000
C        -2.62130000000000   -0.50950000000000    0.44100000000000
N        -1.62600000000000    0.07330000000000    1.16020000000000
C        -1.89680000000000    1.15240000000000    1.91690000000000
C        -3.17230000000000    1.70330000000000    1.99650000000000
C        -4.20510000000000    1.11740000000000    1.26270000000000
C        -3.92610000000000    0.00250000000000    0.47820000000000
H        -4.71960000000000   -0.46420000000000   -0.09520000000000
H        -3.34630000000000    2.57510000000000    2.62070000000000
H        -1.04450000000000    1.57420000000000    2.43690000000000
Ir        0.42150000000000   -0.81650000000000    0.91330000000000
H         0.87260000000000   -2.23030000000000    1.54050000000000
B         0.50670000000000    0.41560000000000   -0.81540000000000
O         0.19500000000000   -0.04700000000000   -2.09150000000000
C         0.00650000000000    1.10040000000000   -2.95430000000000
C         0.49020000000000    0.74740000000000   -4.35780000000000
H         1.51610000000000    0.37380000000000   -4.33700000000000
H         0.44730000000000    1.62240000000000   -5.01670000000000
H        -0.14740000000000   -0.03390000000000   -4.78430000000000
C        -1.50120000000000    1.39560000000000   -2.96670000000000
H        -1.75370000000000    2.21460000000000   -3.64850000000000
H        -2.03200000000000    0.49450000000000   -3.28930000000000
H        -1.85170000000000    1.65210000000000   -1.96220000000000
C         0.84230000000000    2.20670000000000   -2.22040000000000
O         0.75200000000000    1.78260000000000   -0.83690000000000
C         2.32930000000000    2.18620000000000   -2.59900000000000
H         2.74130000000000    1.18500000000000   -2.45750000000000
H         2.48870000000000    2.51300000000000   -3.63180000000000
H         2.87200000000000    2.86270000000000   -1.93200000000000
C         0.28440000000000    3.62290000000000   -2.33660000000000
H        -0.72650000000000    3.69040000000000   -1.92910000000000
H         0.92130000000000    4.31480000000000   -1.77610000000000
H         0.26430000000000    3.94810000000000   -3.38320000000000
B         1.56300000000000    0.60960000000000    1.84840000000000
O         2.92780000000000    0.55230000000000    2.15020000000000
C         3.36330000000000    1.88660000000000    2.50260000000000
C         4.53140000000000    1.78590000000000    3.47740000000000
H         4.27910000000000    1.16090000000000    4.33690000000000
H         5.39390000000000    1.33790000000000    2.97340000000000
H         4.82390000000000    2.77870000000000    3.83820000000000
C         3.79700000000000    2.56850000000000    1.19670000000000
H         4.20020000000000    3.57090000000000    1.37680000000000
H         4.56740000000000    1.95560000000000    0.72110000000000
H         2.95240000000000    2.63260000000000    0.50540000000000
C         2.05040000000000    2.50090000000000    3.09320000000000
O         1.03750000000000    1.81620000000000    2.31910000000000
C         1.89100000000000    4.00450000000000    2.88650000000000
H         1.87290000000000    4.25440000000000    1.82410000000000
H         0.94940000000000    4.34260000000000    3.33170000000000
H         2.71080000000000    4.55150000000000    3.36630000000000
C         1.82470000000000    2.13200000000000    4.56520000000000
H         1.92610000000000    1.05330000000000    4.71320000000000
H         2.52610000000000    2.65280000000000    5.22540000000000
H         0.80630000000000    2.41580000000000    4.84900000000000
B         2.27820000000000   -1.33090000000000    0.17410000000000
O         2.89460000000000   -2.57740000000000    0.38450000000000
C         4.26930000000000   -2.48200000000000   -0.07210000000000
C         5.10900000000000   -2.05380000000000    1.14010000000000
H         4.76350000000000   -1.08740000000000    1.51750000000000
H         4.98050000000000   -2.79470000000000    1.93590000000000
H         6.17420000000000   -1.99290000000000    0.89300000000000
C         4.71950000000000   -3.84660000000000   -0.58470000000000
H         4.75280000000000   -4.56130000000000    0.24420000000000
H         5.72330000000000   -3.78370000000000   -1.02010000000000
H         4.03500000000000   -4.23600000000000   -1.34170000000000
C         4.16440000000000   -1.36220000000000   -1.16300000000000
O         3.08520000000000   -0.55030000000000   -0.65400000000000
C         5.40720000000000   -0.48870000000000   -1.31550000000000
H         6.27320000000000   -1.09010000000000   -1.61530000000000
H         5.23300000000000    0.26930000000000   -2.08590000000000
H         5.64270000000000    0.02650000000000   -0.38240000000000
C         3.71800000000000   -1.89830000000000   -2.53110000000000
H         2.82530000000000   -2.52160000000000   -2.42740000000000
H         3.46090000000000   -1.05250000000000   -3.17550000000000
H         4.50570000000000   -2.48290000000000   -3.01790000000000
H        -3.38500000000000   -4.00130000000000   -2.59310000000000
H        -5.21400000000000    1.52080000000000    1.29960000000000
C         0.23590000000000   -1.68140000000000    2.96030000000000
N        -0.97617174105848   -2.06155832519846    3.37424005830435
N         1.32532631508901   -1.73688762416575    3.74049160591263
C        -1.07982207257797   -2.55949711454114    4.60460848123071
C         1.22085455880766   -2.28611690998723    4.94094181006710
C         0.01377582505626   -2.76232792395044    5.42712306475322
H        -2.08321576654569   -2.82753803456230    4.91861639609882
H         2.14420428914530   -2.36400788998743    5.50569100617275
H        -0.06342254732109   -3.25753728257470    6.38263357486738
94
 energy: -136.965496245735 gnorm: 0.051318298525 xtb: 6.4.1 (1a32961)
N        -0.95898894857161   -2.09866221225527   -0.25612806574995
C        -2.23747217556444   -1.69039385575462   -0.36401600266476
C        -3.13341319824393   -2.36291687948437   -1.20402428563267
C        -2.70419850921559   -3.46461692766691   -1.92058610330243
C        -1.38484986641040   -3.88433501831153   -1.78220222475045
C        -0.55312073022265   -3.16849388690412   -0.94279006298995
H         0.48108327089983   -3.44828985905210   -0.79464662464608
H        -1.00880295026486   -4.74427018653171   -2.31786153704758
H        -4.15393846093330   -2.02747515495438   -1.30710414617609
C        -2.60850946221074   -0.51424703659494    0.43808159344284
N        -1.61647955118653    0.06788703294975    1.14725199941019
C        -1.89653985625369    1.13745974149181    1.89565906456819
C        -3.16431688436961    1.68528816621711    1.98491749385032
C        -4.19470572409341    1.10111635213997    1.25799682378814
C        -3.91190411352905   -0.00561248597681    0.47834848526572
H        -4.70299093041758   -0.46882702153789   -0.09108517177919
H        -3.33948102403984    2.54931780159169    2.61064209675250
H        -1.05348871827843    1.55919119931727    2.42220026520404
Ir        0.42150000000000   -0.81650000000000    0.91330000000000
H         0.87260000000000   -2.23030000000000    1.54050000000000
B         0.48824430286407    0.42690743550579   -0.78863860308660
O         0.17538414581245   -0.03382144030758   -2.06093636562790
C         0.00994550246612    1.09719304079684   -2.94312322771881
C         0.48899343022827    0.74704733102113   -4.34796152056092
H         1.50800050395791    0.37057503465072   -4.32664006063037
H         0.44385808182098    1.62230853373490   -4.99662982084658
H        -0.14974356324463   -0.02908562859894   -4.76798922692835
C        -1.49429919691537    1.39889898537955   -2.96924085995553
H        -1.73297968369148    2.21165779967084   -3.65352220311916
H        -2.02381898743359    0.50145620013959   -3.28882125515049
H        -1.84069394181374    1.65344588356045   -1.96749807071647
C         0.83169760839167    2.20768473643928   -2.21274685190534
O         0.75480794112018    1.78196649614281   -0.83499468794752
C         2.31420225851244    2.19107754912493   -2.60014125376565
H         2.71828852631818    1.19198122451088   -2.44976367026191
H         2.46576095848668    2.51233423423635   -3.62994064210028
H         2.85636901055029    2.86571679694716   -1.93866446459700
C         0.27974852084588    3.62351782795856   -2.33971235985028
H        -0.72341420301295    3.69184831997049   -1.92710129698214
H         0.91930947348759    4.30703546521865   -1.78288690821777
H         0.26191256017938    3.93591233832343   -3.38389654984407
B         1.56896945903468    0.60988552881216    1.86537726239748
O         2.93045903893189    0.56604210007012    2.13109156804627
C         3.36467334295354    1.88714983960012    2.50848279092046
C         4.53443368622049    1.79048837101418    3.47905568474489
H         4.28140056112705    1.16006692000077    4.32708208518755
H         5.38902444348165    1.34627708280575    2.97094293225252
H         4.81643204786325    2.78082019369726    3.83620933177918
C         3.79909901525818    2.57613965133929    1.21025000045594
H         4.20017931119472    3.57190971126482    1.39442896554796
H         4.56293789833127    1.96451177194787    0.73326762039250
H         2.95056665841683    2.62768428903689    0.52933311781698
C         2.05443450093930    2.50413848907004    3.08989718355316
O         1.04244715629939    1.80450023508557    2.33876389269705
C         1.89309152722590    4.00623720040623    2.88909588921835
H         1.86753725596612    4.24928668604001    1.83074473650738
H         0.95562649457376    4.33529158966712    3.33578333323392
H         2.71355596688073    4.54289156689066    3.36487174839226
C         1.83393218023792    2.13944841281347    4.56190852736860
H         1.93855362961604    1.06305082452776    4.69521036950956
H         2.53492929044829    2.66052151354937    5.21151326745006
H         0.81882499372809    2.41705926722977    4.84662362328444
B         2.27820000000000   -1.33090000000000    0.17410000000000
O         2.89908357791115   -2.56277078642260    0.38547905100463
C         4.26522279592115   -2.48296736422372   -0.07875211464640
C         5.10932904734632   -2.05817796574676    1.12716301871470
H         4.75037560401996   -1.10035994656745    1.50072660894465
H         4.97735211809986   -2.79311374795467    1.91984824377331
H         6.16734185672160   -1.99736989028002    0.87519028131790
C         4.72055093825969   -3.84489238914458   -0.58931298630962
H         4.75018353167984   -4.54914312775766    0.24082200678029
H         5.71855667606295   -3.77299377757386   -1.02091133133478
H         4.03528293679933   -4.23282431717708   -1.33824700187372
C         4.16595526143082   -1.35976277226793   -1.15871107219062
O         3.07275955331747   -0.56358895091150   -0.66302566993475
C         5.40891980442678   -0.49107923856725   -1.31628655429916
H         6.26514668265290   -1.09679571261553   -1.61201913223073
H         5.23038753573929    0.26008364459895   -2.08449104925203
H         5.63617124737915    0.02281245769505   -0.38686202847620
C         3.72898052321751   -1.89883715715885   -2.52697646599909
H         2.83708395422182   -2.51445939440549   -2.41808302613776
H         3.47138455335544   -1.05733252392157   -3.16866870347553
H         4.51910730863384   -2.47586654176284   -3.00460114880899
H        -3.38397572106618   -3.98909476794019   -2.57832960713048
H        -5.19874696889365    1.50247960291096    1.29764474541745
C         0.23590000000000   -1.68140000000001    2.96030000000000
N        -0.97703129948955   -2.06413180520382    3.36606731695285
N         1.31883242551857   -1.72729456065459    3.74999474057349
C        -1.09030674985051   -2.55599335137377    4.59401434757814
C         1.20904725692027   -2.26873910737393    4.94722375172700
C        -0.00139099141443   -2.75080021852051    5.42812379309126
H        -2.09448739776079   -2.82884435022987    4.90036681757575
H         2.12798669115415   -2.33865062251268    5.51951097956191
H        -0.08358319050998   -3.24247013786201    6.38446381036069
94
 energy: -136.967690041447 gnorm: 0.042407807128 xtb: 6.4.1 (1a32961)
N        -0.94856529981843   -2.09036454966006   -0.26769186589299
C        -2.22522491895365   -1.68504489756670   -0.36561544901368
C        -3.12772872146100   -2.35692661444643   -1.19817899327786
C        -2.70809368034280   -3.45586716857415   -1.91637403629477
C        -1.38919235534665   -3.87581464900915   -1.78412467541134
C        -0.55587242609691   -3.15857288747032   -0.95258201503690
H         0.47752932149967   -3.44168681670412   -0.81466481094829
H        -1.01999741261325   -4.73639101786747   -2.31693576011037
H        -4.14733851488236   -2.02353791677077   -1.29112539311156
C        -2.59215504626357   -0.51853942127234    0.43449236188006
N        -1.60364663127027    0.05964741271404    1.14419561923322
C        -1.89092380308124    1.12342979077495    1.88719539770808
C        -3.15499311886892    1.67043600019867    1.98035279388420
C        -4.18528327992105    1.08576770571850    1.25467133346206
C        -3.89658579570139   -0.01378667068011    0.47474120131089
H        -4.68485207272801   -0.47915975731449   -0.09203612736540
H        -3.33131336552427    2.52960444659159    2.60677854443180
H        -1.05357760464186    1.55278958992733    2.41366714717659
Ir        0.42150000000000   -0.81650000000000    0.91330000000000
H         0.87260000000000   -2.23030000000000    1.54050000000000
B         0.49403399385338    0.43988130051578   -0.76434839488866
O         0.15568890423963   -0.02219404263963   -2.02813829800833
C         0.00466064408926    1.09530562182022   -2.92184271514939
C         0.48784684057966    0.73943685931460   -4.32426923469673
H         1.50309464533476    0.35963859686973   -4.30431624619113
H         0.44221599181562    1.61759393904140   -4.96317788142080
H        -0.15484808583938   -0.03071815962452   -4.74223827171403
C        -1.49795009695177    1.40575599950796   -2.96735178405888
H        -1.71861052813240    2.21433820625650   -3.65740123010926
H        -2.02624785329921    0.51041014189125   -3.28753427515182
H        -1.84660905840317    1.66345457422751   -1.96966450173463
C         0.82295798403741    2.20913669163293   -2.19961282392307
O         0.75849851558764    1.78866860280203   -0.82614737603234
C         2.30269344206282    2.19750780166283   -2.59773037592376
H         2.70350652638795    1.20004100432469   -2.43983654342468
H         2.44066359073335    2.51084962339444   -3.62851301985627
H         2.84488369044954    2.87666191319703   -1.94482192848615
C         0.26790951110339    3.62317193043442   -2.33632198415228
H        -0.73082177922375    3.69666887722157   -1.91982062597448
H         0.91250322448262    4.30536896090188   -1.78914728229030
H         0.25032442745035    3.91858550543181   -3.38180527256141
B         1.57874517049694    0.61781287137943    1.86502595211716
O         2.93246477737745    0.57971442759081    2.11351574760527
C         3.36591829672350    1.89011608194983    2.50913811645688
C         4.53374916049897    1.79158523819959    3.48263213093214
H         4.28363060340847    1.15441521709400    4.32321249490304
H         5.38609214851706    1.35593514700692    2.96952725292085
H         4.80485204409329    2.78095672855906    3.83969756720242
C         3.80421500917674    2.59213914474632    1.21932746734930
H         4.20125679656718    3.58385450238156    1.41215383173759
H         4.56684833253765    1.98351741619134    0.74165777149839
H         2.95357112823817    2.63746138352702    0.54390499629188
C         2.05666323901057    2.50205026669797    3.09146957181036
O         1.04593858412915    1.79360059565573    2.35579041702493
C         1.89410039044631    4.00386245035978    2.88922864380607
H         1.85963995653164    4.24545097352979    1.83312474496274
H         0.96164731086726    4.32760819908636    3.34300400856076
H         2.71792849169791    4.53229053924736    3.35994215869601
C         1.84947396313599    2.14387971903474    4.56781556172901
H         1.95826960889824    1.06876498542710    4.69171055797255
H         2.55262441655125    2.66825072237607    5.20662370308141
H         0.83639167881372    2.41682017108443    4.85502906408169
B         2.27820000000001   -1.33090000000000    0.17410000000000
O         2.90043379762401   -2.55077328819954    0.39136743257073
C         4.25744289855649   -2.48062856652642   -0.08165663178073
C         5.11078123127806   -2.05985201602726    1.11837154433602
H         4.74440546248914   -1.10668157863084    1.49060111959590
H         4.98047171694089   -2.79400551370669    1.90827543576433
H         6.16269256134303   -1.99826353355986    0.85709124853797
C         4.71322231641671   -3.84183252509395   -0.59530129237842
H         4.74555193384601   -4.53944947615310    0.23631686402301
H         5.70711172257703   -3.75976227161680   -1.02547737195368
H         4.02829149461225   -4.23166131869480   -1.33978705796470
C         4.16071159773610   -1.35858426739407   -1.15862582437161
O         3.05967493557279   -0.57259904458454   -0.67178127059181
C         5.40472373912880   -0.49104563079858   -1.31169675993399
H         6.25300363243220   -1.10390635300922   -1.60226072757594
H         5.22723474004938    0.25358565299550   -2.08230572134387
H         5.62818196123684    0.02426412368529   -0.38508211624386
C         3.73846832878642   -1.90083987397823   -2.53089346361612
H         2.84787901140076   -2.51386390162172   -2.42085113532106
H         3.48419137925260   -1.06111269199634   -3.17247714469426
H         4.53495890004806   -2.47305293730502   -2.99568170068153
H        -3.39047965526679   -3.98063507736378   -2.56647971352449
H        -5.18818004534337    1.48200955894195    1.29798269753883
C         0.23590000000000   -1.68140000000004    2.96030000000000
N        -0.97917679839595   -2.07013940129304    3.35137885365998
N         1.30761243941153   -1.71059273239556    3.76653461338266
C        -1.10802555622691   -2.55265049035492    4.57908886976815
C         1.18501923985059   -2.23974325220234    4.96397011176986
C        -0.02964750816738   -2.73032028714581    5.43316587035019
H        -2.11426855768664   -2.83216689888133    4.87301257469510
H         2.09488202142199   -2.29360504109858    5.55308871943789
H        -0.12161538721582   -3.21417295890647    6.39199545308492
94
 energy: -136.968812717942 gnorm: 0.042644625962 xtb: 6.4.1 (1a32961)
N        -0.93682875882461   -2.08749887045017   -0.27974313840228
C        -2.21462500613442   -1.68353560718381   -0.36831952695334
C        -3.12396789837289   -2.35571398731211   -1.19435581450558
C        -2.71162327630438   -3.45456527729663   -1.91492106264827
C        -1.39028067152846   -3.87379734273974   -1.79226553724135
C        -0.55116599527785   -3.15428154761448   -0.96836612336322
H         0.48304110987108   -3.44010700579312   -0.83996236119600
H        -1.02652944494182   -4.73564018805002   -2.32529195548744
H        -4.14391572850804   -2.02175878675288   -1.27816914681273
C        -2.57885067435332   -0.52197563189852    0.43277074524993
N        -1.59103137218374    0.05638684968265    1.14328808542769
C        -1.88247197120306    1.11862826807756    1.88511222863254
C        -3.14734346303937    1.66204788267272    1.98186543485317
C        -4.17834474872866    1.07479639289191    1.25647748432579
C        -3.88514839370967   -0.02053008020308    0.47421150498898
H        -4.67061236990016   -0.48732002864674   -0.09457858952430
H        -3.32532450624543    2.51822901241597    2.61035183754352
H        -1.04894109024091    1.55189549515026    2.41494023865614
Ir        0.42150000000000   -0.81650000000000    0.91330000000000
H         0.87260000000000   -2.23030000000000    1.54050000000000
B         0.47598075691860    0.45821503694773   -0.74151810683578
O         0.13113143577032   -0.01088779179154   -2.00058378791460
C        -0.00597716938638    1.09682583405804   -2.90220926854330
C         0.48498224656689    0.72970381374314   -4.29994166912484
H         1.49756682737920    0.34404337627208   -4.27400528972770
H         0.44602381176054    1.60771122093563   -4.93844971090444
H        -0.16110821505636   -0.03743969891771   -4.71729058872630
C        -1.50742831238068    1.41534691220632   -2.96512917022668
H        -1.71249230943101    2.22141246804113   -3.66192184307529
H        -2.03599602206612    0.52115839541917   -3.28688341551377
H        -1.86438956444450    1.67955022996019   -1.97241983840416
C         0.81302602796210    2.21349739236810   -2.18524705597428
O         0.75798251340481    1.80071690719864   -0.81271714119670
C         2.29101498100205    2.20368296935862   -2.59349281928993
H         2.69375153633246    1.20830029825487   -2.42866712307716
H         2.41866194313481    2.50820386288964   -3.62761944931584
H         2.83454497062905    2.89060192935927   -1.95033470581552
C         0.25609720381365    3.62697790731308   -2.33041879708967
H        -0.74015077066064    3.70445840734737   -1.90950750044436
H         0.90462600272996    4.31366695047398   -1.79409114522263
H         0.23368859410745    3.90851342920065   -3.37914614636748
B         1.58241924084661    0.61512669190479    1.87853319062007
O         2.93711840210312    0.58796081464802    2.09720069209537
C         3.36786883727564    1.89242395786072    2.50799321435514
C         4.53587062091610    1.79012343016121    3.48266545725861
H         4.28866722560296    1.14441261693773    4.31720516386169
H         5.39082960737076    1.36465038577125    2.96590196653812
H         4.79805836865317    2.77870276100307    3.84699251504978
C         3.80858656275543    2.60997226105064    1.22626795241708
H         4.20076533140766    3.60053076824221    1.43059108595919
H         4.57496911742493    2.00820755788801    0.74632148052693
H         2.95881660406711    2.65658026139813    0.55051147868724
C         2.05935329299562    2.49949152092630    3.09698205674284
O         1.04699665283870    1.78292504685279    2.37592221548172
C         1.89179737735860    4.00125397559720    2.89131739917057
H         1.84675602690830    4.24060522803350    1.83524409880692
H         0.96380964094477    4.32408861940768    3.35410044310660
H         2.72061195865634    4.52853025770452    3.35325676301087
C         1.86636118124957    2.14751223228457    4.57791659577720
H         1.98002278680852    1.07331607252788    4.70155181300740
H         2.57382243952745    2.67716791000607    5.20635387651516
H         0.85484194843135    2.41761301174090    4.87159275336652
B         2.27820000000003   -1.33090000000000    0.17410000000000
O         2.90150065948722   -2.54416798556082    0.39881690163524
C         4.25179610996621   -2.47906690808189   -0.08343005217096
C         5.11453099284390   -2.06027245317267    1.11157886752349
H         4.74703014813687   -1.10877773303251    1.48630510614910
H         4.98908608800771   -2.79626489241124    1.90014874376901
H         6.16328740363158   -1.99713858429848    0.84191534358248
C         4.70488594910489   -3.84126597806033   -0.59982383590539
H         4.74173280579063   -4.53727572976211    0.23239391550138
H         5.69621980705221   -3.75432551908768   -1.03336655661915
H         4.01764621198817   -4.23199638220373   -1.34124969588294
C         4.15547655648717   -1.35768822349223   -1.16070835177253
O         3.04885923993154   -0.57732404235514   -0.68191873840600
C         5.39950348028450   -0.48812152768852   -1.30780216292291
H         6.24685781963003   -1.10478904770531   -1.59112666742624
H         5.22598359425712    0.25278213764570   -2.08236077079599
H         5.61767971919849    0.02983616781802   -0.38180394526270
C         3.74678609787347   -1.90265945078253   -2.53712518566404
H         2.85704231531533   -2.51707264316326   -2.43276798896368
H         3.49777588506966   -1.06402043781883   -3.18171454089193
H         4.55031797388700   -2.47277237324880   -2.99071631060837
H        -3.39885914198493   -3.97927334138567   -2.55928083339717
H        -5.18239829979699    1.46629965726533    1.30239945355664
C         0.23590000000000   -1.68140000000007    2.96029999999999
N        -0.98227389853356   -2.07791343051344    3.33333080459692
N         1.29382901877320   -1.69082106853236    3.78575542314299
C        -1.12987342756669   -2.54842119642803    4.56314709998512
C         1.15301755127560   -2.20415170558845    4.98752981558212
C        -0.06570357422157   -2.70297774547085    5.44099153866299
H        -2.13866427422483   -2.83685480339274    4.84098775663711
H         2.05093310784570   -2.23823418449263    5.59802860234323
H        -0.17046945664732   -3.17550055734317    6.40404562427233
94
 energy: -136.970141461133 gnorm: 0.042760986248 xtb: 6.4.1 (1a32961)
N        -0.92233104407610   -2.08706602084078   -0.29451148813211
C        -2.20272782208820   -1.68482049576276   -0.37145294054165
C        -3.11942512546879   -2.35820803076034   -1.19018729336838
C        -2.71441009797136   -3.45716951500535   -1.91415227686312
C        -1.38937335278337   -3.87396950548230   -1.80521143478570
C        -0.54219655092566   -3.15168232755752   -0.99040267550831
H         0.49468292376822   -3.43711048671805   -0.87697737011501
H        -1.03105929393429   -4.73636517404051   -2.34139965124969
H        -4.14054288852616   -2.02399888064753   -1.26256791047355
C        -2.56449393626539   -0.52720651364010    0.43277443979556
N        -1.57695896253540    0.04977880254619    1.14788335998482
C        -1.87134013054702    1.11273631954448    1.88958381412181
C        -3.13750686724045    1.65324723055381    1.98761899789226
C        -4.16922629672158    1.06424419568617    1.26114502935924
C        -3.87194417907490   -0.02640648077744    0.47453908823142
H        -4.65444138961732   -0.49375318944597   -0.09832810231752
H        -3.31699462274865    2.50725373693276    2.61857655068154
H        -1.04052632408640    1.55067529288401    2.42119340964083
Ir        0.42150000000000   -0.81649999999999    0.91330000000000
H         0.87260000000000   -2.23030000000000    1.54050000000001
B         0.47457768133922    0.47861663563822   -0.71560877585592
O         0.09939054702612    0.00494832763539   -1.96514135120746
C        -0.02340211214595    1.10164955047057   -2.87492443750821
C         0.47748155698024    0.71516014073594   -4.26529359711483
H         1.48590165747385    0.31843311949287   -4.22521061057464
H         0.45386704716709    1.58869505142524   -4.91144221217806
H        -0.17307821574860   -0.04952364226341   -4.68114459821013
C        -1.52281022712328    1.43205495412932   -2.96019973370172
H        -1.70971997358511    2.23464859799212   -3.66654310953409
H        -2.05343366278797    0.53944810378219   -3.28374009134450
H        -1.89378483540882    1.70718720203188   -1.97508338196668
C         0.80008336802965    2.22294526187179   -2.16663144846088
O         0.75939287663434    1.81785179500322   -0.79424522270118
C         2.27595320006846    2.21570833751786   -2.58709708557810
H         2.68480880592499    1.22424274677431   -2.41154455546963
H         2.39164376969494    2.50625502237855   -3.62687854551378
H         2.82108289475721    2.91544011238791   -1.95840684203751
C         0.23801421274635    3.63487870826924   -2.32048307984066
H        -0.75459408103148    3.71606092648854   -1.89066546126081
H         0.89129714838029    4.33074631819990   -1.80066122319761
H         0.20381917315319    3.90131667829764   -3.37341122927468
B         1.58909585199026    0.61926176414166    1.87682682209422
O         2.94434256421650    0.60128461644623    2.07079576324525
C         3.37297819549412    1.89824477572756    2.50422325810599
C         4.54123022964496    1.78572122277865    3.47980276889399
H         4.29804341466109    1.12450363787876    4.30415667352590
H         5.40173377145979    1.37645013840591    2.95773783252762
H         4.79369758471782    2.77126767790258    3.86114161771085
C         3.81707249322714    2.63814706345167    1.23462960279476
H         4.20103639352689    3.62840190081377    1.45759809493154
H         4.59178811816679    2.04917720331914    0.75093375058234
H         2.97111062576182    2.69044275376798    0.55432165351440
C         2.06437901026674    2.49586719418280    3.10666941715182
O         1.04789641353926    1.77058510719953    2.40331612660664
C         1.88611897707130    3.99712962202853    2.89684166886543
H         1.82300387379090    4.23229505870178    1.84004587117572
H         0.96471151199417    4.31966530868737    3.37425299183587
H         2.72207983553511    4.52855011598377    3.34256763675944
C         1.89313697968311    2.15206038384710    4.59371157048966
H         2.01333298745781    1.07914949835768    4.72259724765367
H         2.60704806699764    2.68992470813480    5.20842633494589
H         0.88412945117706    2.41950226128167    4.89914936251068
B         2.27820000000005   -1.33090000000000    0.17410000000000
O         2.90563160457597   -2.53708568538685    0.41017318330642
C         4.24823251672217   -2.47719258329581   -0.08540472066916
C         5.12406634067370   -2.06062927908478    1.10257733594769