96
 energy: -138.019779488650 gnorm: 0.000317711870 xtb: 6.4.0 (f63f532)
N        -0.96524501837882   -1.98684169692118   -0.38724644788614
C        -2.17407159034068   -1.42915716113848   -0.59798142265644
C        -3.01672143996956   -1.90000199562172   -1.61165615871349
C        -2.61004265134221   -2.94601124400237   -2.41118948146960
C        -1.35754209056281   -3.51082346033130   -2.18397353869026
C        -0.58213310310760   -2.99480716943875   -1.16696797674891
H         0.39423475011456   -3.40495199565875   -0.94891781050381
H        -0.99847534872023   -4.33051793583075   -2.78465447331419
H        -3.97969193629486   -1.44683828508819   -1.77982465391283
C        -2.53184455299102   -0.32028854430207    0.27917727404190
N        -1.58782049710462    0.07799084048211    1.16040502477388
C        -1.87280742937948    1.07458134979352    1.99556703152352
C        -3.08355829401371    1.73783476789783    2.00471052969232
C        -4.06112889849060    1.35003765330432    1.09235722734399
C        -3.77898557456699    0.31384207388799    0.22757217980468
H        -4.52636319733840   -0.00443400767328   -0.47981923261217
H        -3.26154757227620    2.53422097752174    2.70874601569180
H        -1.08034762552313    1.34864635061414    2.67469874727934
Ir        0.42150000000000   -0.81649999999986    0.91330000000021
H         0.87260000000002   -2.23030000000005    1.54049999999988
B         0.46198616865785    0.54371287149933   -0.66972112714028
O        -0.14203833871584    0.19918702165870   -1.86662084438652
C        -0.19424420325725    1.33277777310917   -2.73801995221469
C         0.11937690567735    0.89250676259986   -4.16596344874613
H         1.04813555087721    0.33274682685481   -4.19903594232604
H         0.18905215098082    1.75829252026970   -4.81936700448221
H        -0.67946764920397    0.24620831312057   -4.52197153786881
C        -1.62980096004365    1.87501005759312   -2.68131649749774
H        -1.75760981718006    2.72011559154946   -3.35105973852597
H        -2.31210913956059    1.08059626875364   -2.97756042342985
H        -1.87763729472440    2.17070779335122   -1.66385695689401
C         0.85077400161641    2.30504107986375   -2.09696144615771
O         0.92520256205926    1.83605257669638   -0.74337435652540
C         2.25102647272719    2.14098469677944   -2.70057009798101
H         2.56403027228830    1.10557601869346   -2.59140324201928
H         2.27173325522740    2.44143967202982   -3.74415837151642
H         2.94886301511524    2.75937896539282   -2.14085155225323
C         0.45631912441744    3.78073556986014   -2.11699999927831
H        -0.44413079382008    3.95686828704958   -1.53688168880762
H         1.25966142395344    4.36974010370599   -1.68097261050574
H         0.29849237178418    4.10910599229312   -3.14113851344867
B         1.59758730000261    0.65034406406128    1.82454034966560
O         2.96673739179220    0.72029345156113    1.90889292065484
C         3.36523213498004    2.03224680513413    2.33334892162578
C         4.54612712444276    1.92823817276479    3.29702406474018
H         4.32182943909411    1.25796848011825    4.12017275587961
H         5.40684289301290    1.53188521744445    2.76408393553195
H         4.79791350614280    2.91113150450271    3.68618793003147
C         3.79910797527269    2.78262857376137    1.06841948569616
H         4.10315398086773    3.80101369516295    1.29126278011730
H         4.63723286274900    2.25327199715126    0.62115028619778
H         2.97866310386396    2.77284672622869    0.35574591251218
C         2.04833253053756    2.60991301989977    2.95831978110457
O         1.03438981352040    1.76624103617997    2.39601426498505
C         1.74846916970997    4.06230452519802    2.58938478371800
H         1.59366481125365    4.15754902362671    1.51986578804524
H         0.83866043633073    4.37721672488553    3.09436517538357
H         2.56466422592332    4.70686319009056    2.90389654958902
C         1.98089047658857    2.45217057971988    4.48265146451809
H         2.13358471221905    1.41305432136787    4.76094533930752
H         2.71963334284657    3.07868202055578    4.97288072087258
H         0.98969412282260    2.74413214093905    4.82205497638741
B         2.27820000000043   -1.33089999999893    0.17410000000018
O         3.03946037280995   -2.37393930686443    0.66160300980380
C         4.34527483986679   -2.35424174629176    0.07113853135398
C         5.27852160862680   -1.70459311565928    1.09847592905714
H         4.88275825329743   -0.72839434804409    1.36484781309785
H         5.28220668720335   -2.31799454194893    1.99599964929927
H         6.29289643913983   -1.62097495295205    0.72074517117865
C         4.80600889923477   -3.78578713386529   -0.20087917903812
H         4.90380534504518   -4.30687844185841    0.74780807054903
H         5.77067101279884   -3.77856161311352   -0.70048866197065
H         4.08692355312841   -4.32500254964346   -0.80838373301972
C         4.12992082612924   -1.46955200344714   -1.20543415659949
O         2.92008680581393   -0.75812773298127   -0.89981039364876
C         5.24907060552090   -0.46958351555339   -1.48773881827689
H         6.19447216470593   -0.98959193115425   -1.61546613786458
H         5.02093333958574    0.07529865890874   -2.40036674790453
H         5.32963432613883    0.24584931077360   -0.67699831938202
C         3.86067422619582   -2.29352757874642   -2.47229620915065
H         3.04224378458685   -2.98732382478314   -2.30060022232253
H         3.56443613860207   -1.61694910925851   -3.27059162099659
H         4.74845285902012   -2.83714688720408   -2.78073276676844
H        -3.24943715792307   -3.31742420489847   -3.19753829273166
H        -5.01970927026943    1.84550793296608    1.06281027007419
C         0.23589999999952   -1.68139999999995    2.96030000000047
N        -0.89648982128722   -2.28779680737792    3.45460368391992
C         0.98205917916035   -1.38646142303469    4.07820913156552
C        -1.99240275228467   -2.84363299499668    2.71246314198492
C        -0.79489009682490   -2.28066497903781    4.80529914298318
N         0.32491418018025   -1.74248202015336    5.21498235246939
H         1.95601814933708   -0.94191464434496    4.11816550408093
H        -2.46613093290746   -3.62571576728988    3.30537210633952
H        -1.62388514168551   -3.26808358205748    1.77943659678314
H        -2.73799212829979   -2.07865124282502    2.48071401642079
H        -1.55417692293973   -2.67600397646630    5.45207508865962
