      -----------------------------------------------------------      
     |                   =====================                   |     
     |                           x T B                           |     
     |                   =====================                   |     
     |                         S. Grimme                         |     
     |          Mulliken Center for Theoretical Chemistry        |     
     |                    University of Bonn                     |     
      -----------------------------------------------------------      

   * xtb version 6.4.0 (f63f532) compiled by 'knkr256@seskscpg008.prim.scp' on 2021-04-09

   xtb is free software: you can redistribute it and/or modify it under
   the terms of the GNU Lesser General Public License as published by
   the Free Software Foundation, either version 3 of the License, or
   (at your option) any later version.
   
   xtb is distributed in the hope that it will be useful,
   but WITHOUT ANY WARRANTY; without even the implied warranty of
   MERCHANTABILITY or FITNESS FOR A PARTICULAR PURPOSE.  See the
   GNU Lesser General Public License for more details.
   
   Cite this work as:
   * C. Bannwarth, E. Caldeweyher, S. Ehlert, A. Hansen, P. Pracht,
     J. Seibert, S. Spicher, S. Grimme, WIREs Comput. Mol. Sci., 2020, 11,
     e01493. DOI: 10.1002/wcms.1493
   
   for GFN2-xTB:
   * C. Bannwarth, S. Ehlert and S. Grimme., J. Chem. Theory Comput., 2019,
     15, 1652-1671. DOI: 10.1021/acs.jctc.8b01176
   for GFN1-xTB:
   * S. Grimme, C. Bannwarth, P. Shushkov, J. Chem. Theory Comput., 2017,
     13, 1989-2009. DOI: 10.1021/acs.jctc.7b00118
   for GFN0-xTB:
   * P. Pracht, E. Caldeweyher, S. Ehlert, S. Grimme, ChemRxiv, 2019, preprint.
     DOI: 10.26434/chemrxiv.8326202.v1
   for GFN-FF:
   * S. Spicher and S. Grimme, Angew. Chem. Int. Ed., 2020, 59, 15665-15673.
     DOI: 10.1002/anie.202004239
   
   for DFT-D4:
   * E. Caldeweyher, C. Bannwarth and S. Grimme, J. Chem. Phys., 2017,
     147, 034112. DOI: 10.1063/1.4993215
   * E. Caldeweyher, S. Ehlert, A. Hansen, H. Neugebauer, S. Spicher,
     C. Bannwarth and S. Grimme, J. Chem. Phys., 2019, 150, 154122.
     DOI: 10.1063/1.5090222
   * E. Caldeweyher, J.-M. Mewes, S. Ehlert and S. Grimme, Phys. Chem. Chem. Phys.
     2020, 22, 8499-8512. DOI: 10.1039/D0CP00502A
   
   for sTDA-xTB:
   * S. Grimme and C. Bannwarth, J. Chem. Phys., 2016, 145, 054103.
     DOI: 10.1063/1.4959605
   
   in the mass-spec context:
   * V. Asgeirsson, C. Bauer and S. Grimme, Chem. Sci., 2017, 8, 4879.
     DOI: 10.1039/c7sc00601b
   * J. Koopman and S. Grimme, ACS Omega 2019, 4, 12, 15120-15133.
     DOI: 10.1021/acsomega.9b02011
   
   for metadynamics refer to:
   * S. Grimme, J. Chem. Theory Comput., 2019, 155, 2847-2862
     DOI: 10.1021/acs.jctc.9b00143
   
   for SPH calculations refer to:
   * S. Spicher and S. Grimme, J. Chem. Theory Comput., 2021, 17, 1701-1714
     DOI: 10.1021/acs.jctc.0c01306
   
   with help from (in alphabetical order)
   P. Atkinson, C. Bannwarth, F. Bohle, G. Brandenburg, E. Caldeweyher
   M. Checinski, S. Dohm, S. Ehlert, S. Ehrlich, I. Gerasimov, J. Koopman
   C. Lavinge, S. Lehtola, F. März, M. Müller, F. Musil, H. Neugebauer
   J. Pisarek, P. Pracht, J. Seibert, P. Shushkov, S. Spicher, M. Stahn
   T. Strunk, J. Stückrath, T. Rose, and J. Unsleber
   
 * started run on 2021/10/08 at 07:23:51.019     

           -------------------------------------------------
          |                Calculation Setup                |
           -------------------------------------------------

          program call               : xtb xtbopt.xyz --sp --alpb thf -P 6
          hostname                   : seskscpg010.prim.scp
          coordinate file            : xtbopt.xyz
          omp threads                :                     6
          number of atoms            :                   111
          number of electrons        :                   290
          charge                     :                     0
          spin                       :                   0.0
          first test random number   :      0.47468462975146

   ID    Z sym.   atoms
    1    7 N      1, 11, 103
    2    6 C      2-6, 10, 12-15, 23, 24, 28, 32, 34, 38, 44, 45, 49, 53, 55,
                  59, 65, 66, 70, 74, 76, 80, 86-89, 91, 93, 95, 97, 100,
                  104-106, 108
    3    1 H      7-9, 16-18, 20, 25-27, 29-31, 35-37, 39-41, 46-48, 50-52,
                  56-58, 60-62, 67-69, 71-73, 77-79, 81-85, 90, 92, 94, 96,
                  98, 99, 101, 102, 107, 109-111
    4   77 Ir     19
    5    5 B      21, 42, 63
    6    8 O      22, 33, 43, 54, 64, 75

molecular fragmentation (1/2 indicates fragments):
111111111111111111111111111111111111111111111111111111111111111111111111
111111111111122222222222222222222222222
# atoms in fragment 1/2:    85    26
 fragment masses (1/2) :      730.32      182.24
CMA distance (Bohr)    :  12.578
constraining FC (au)   :  0.0500

           -------------------------------------------------
          |                 G F N 2 - x T B                 |
           -------------------------------------------------

        Reference                      10.1021/acs.jctc.8b01176
      * Hamiltonian:
        H0-scaling (s, p, d)           1.850000    2.230000    2.230000
        zeta-weighting                 0.500000
      * Dispersion:
        s8                             2.700000
        a1                             0.520000
        a2                             5.000000
        s9                             5.000000
      * Repulsion:
        kExp                           1.500000    1.000000
        rExp                           1.000000
      * Coulomb:
        alpha                          2.000000
        third order                    shell-resolved
        anisotropic                    true
        a3                             3.000000
        a5                             4.000000
        cn-shift                       1.200000
        cn-exp                         4.000000
        max-rad                        5.000000

      * Solvation model:               ALPB
        Solvent                        thf
        Parameter file                 internal GFN2-xTB/ALPB
        Dielectric constant                7.6000E+00
        Reference state                gsolv [1 M gas/solution]
        Free energy shift                  5.3248E-03 Eh       3.3414E+00 kcal/mol
        Temperature                        2.9815E+02 K
        Density                            8.8300E-01 kg/L
        Solvent mass                       7.2106E+01 g/mol
        Interaction kernel             P16
        Born radius scaling (c1)           1.7311E+00
        Born radii integrator          GBOBC
        Born offset                        0.0000E+00 a0       0.0000E+00 AA
        H-bond correction              true
        Ion screening                  false
        Surface tension                    1.0000E-05 Eh       1.5569E+01 dyn/cm
        Grid points                               230 per atom
q/qsh data taken from xtbrestart
CAMM data taken from xtbrestart

          ...................................................
          :                      SETUP                      :
          :.................................................:
          :  # basis functions                 279          :
          :  # atomic orbitals                 278          :
          :  # shells                          166          :
          :  # electrons                       290          :
          :  max. iterations                   250          :
          :  Hamiltonian                  GFN2-xTB          :
          :  restarted?                       true          :
          :  GBSA solvation                   true          :
          :  PC potential                    false          :
          :  electronic temp.          300.0000000     K    :
          :  accuracy                    1.0000000          :
          :  -> integral cutoff          0.2500000E+02      :
          :  -> integral neglect         0.1000000E-07      :
          :  -> SCF convergence          0.1000000E-05 Eh   :
          :  -> wf. convergence          0.1000000E-03 e    :
          :  Broyden damping             0.4000000          :
          ...................................................

 iter      E             dE          RMSdq      gap      omega  full diag
   1   -160.0670520 -0.160067E+03  0.267E-05    0.88       0.0  T
   2   -160.0670520  0.110845E-11  0.226E-05    0.88     420.7  T
   3   -160.0670520 -0.562750E-11  0.188E-05    0.88     505.1  T

   *** convergence criteria satisfied after 3 iterations ***

         #    Occupation            Energy/Eh            Energy/eV
      -------------------------------------------------------------
         1        2.0000           -0.6727995             -18.3078
       ...           ...                  ...                  ...
       139        2.0000           -0.3585313              -9.7561
       140        2.0000           -0.3432401              -9.3400
       141        2.0000           -0.3281333              -8.9290
       142        2.0000           -0.3182564              -8.6602
       143        2.0000           -0.3149789              -8.5710
       144        2.0000           -0.3076113              -8.3705
       145        2.0000           -0.3050550              -8.3010 (HOMO)
       146                         -0.2726317              -7.4187 (LUMO)
       147                         -0.2447609              -6.6603
       148                         -0.2422176              -6.5911
       149                         -0.2389180              -6.5013
       150                         -0.2267313              -6.1697
       ...                                ...                  ...
       278                          3.7654202             102.4623
      -------------------------------------------------------------
                  HL-Gap            0.0324233 Eh            0.8823 eV
             Fermi-level           -0.2888121 Eh           -7.8590 eV

 SCC (total)                   0 d,  0 h,  0 min,  0.120 sec
 SCC setup                      ...        0 min,  0.002 sec (  1.997%)
 Dispersion                     ...        0 min,  0.003 sec (  2.668%)
 classical contributions        ...        0 min,  0.000 sec (  0.146%)
 integral evaluation            ...        0 min,  0.033 sec ( 27.687%)
 iterations                     ...        0 min,  0.036 sec ( 29.800%)
 molecular gradient             ...        0 min,  0.045 sec ( 37.068%)
 printout                       ...        0 min,  0.001 sec (  0.579%)

         :::::::::::::::::::::::::::::::::::::::::::::::::::::
         ::                     SUMMARY                     ::
         :::::::::::::::::::::::::::::::::::::::::::::::::::::
         :: total energy            -157.921983099556 Eh    ::
         :: total w/o Gsasa/hb      -157.874728364452 Eh    ::
         :: gradient norm              0.032606967918 Eh/a0 ::
         :: HOMO-LUMO gap              0.882283038428 eV    ::
         ::.................................................::
         :: SCC energy              -160.067051956235 Eh    ::
         :: -> isotropic ES            0.243460614399 Eh    ::
         :: -> anisotropic ES          0.017050096495 Eh    ::
         :: -> anisotropic XC          0.063648745659 Eh    ::
         :: -> dispersion             -0.150162900869 Eh    ::
         :: -> Gsolv                  -0.056766938845 Eh    ::
         ::    -> Gelec               -0.009512203741 Eh    ::
         ::    -> Gsasa               -0.049970267599 Eh    ::
         ::    -> Ghb                 -0.002609282949 Eh    ::
         ::    -> Gshift               0.005324815444 Eh    ::
         :: repulsion energy           2.136763477940 Eh    ::
         :: add. restraining           0.000000000000 Eh    ::
         :: total charge               0.000000000002 e     ::
         :::::::::::::::::::::::::::::::::::::::::::::::::::::

           -------------------------------------------------
          |                Property Printout                |
           -------------------------------------------------

    * Orbital Energies and Occupations

         #    Occupation            Energy/Eh            Energy/eV
      -------------------------------------------------------------
         1        2.0000           -0.6727995             -18.3078
       ...           ...                  ...                  ...
       133        2.0000           -0.3850488             -10.4777
       134        2.0000           -0.3847612             -10.4699
       135        2.0000           -0.3804377             -10.3522
       136        2.0000           -0.3801034             -10.3431
       137        2.0000           -0.3780503             -10.2873
       138        2.0000           -0.3754915             -10.2176
       139        2.0000           -0.3585313              -9.7561
       140        2.0000           -0.3432401              -9.3400
       141        2.0000           -0.3281333              -8.9290
       142        2.0000           -0.3182564              -8.6602
       143        2.0000           -0.3149789              -8.5710
       144        2.0000           -0.3076113              -8.3705
       145        2.0000           -0.3050550              -8.3010 (HOMO)
       146                         -0.2726317              -7.4187 (LUMO)
       147                         -0.2447609              -6.6603
       148                         -0.2422176              -6.5911
       149                         -0.2389180              -6.5013
       150                         -0.2267313              -6.1697
       151                         -0.2066409              -5.6230
       152                         -0.2017165              -5.4890
       153                         -0.2004424              -5.4543
       154                         -0.1801867              -4.9031
       155                         -0.1441626              -3.9229
       156                         -0.1235950              -3.3632
       ...                                ...                  ...
       278                          3.7654202             102.4623
      -------------------------------------------------------------
                  HL-Gap            0.0324233 Eh            0.8823 eV
             Fermi-level           -0.2888121 Eh           -7.8590 eV

     #   Z          covCN         q      C6AA      α(0)
     1   7 N        2.556    -0.122    23.688     7.228
     2   6 C        2.955     0.076    26.311     8.413
     3   6 C        2.918    -0.044    29.083     8.843
     4   6 C        2.923    -0.024    28.593     8.769
     5   6 C        2.915    -0.045    29.120     8.849
     6   6 C        2.892     0.048    26.918     8.506
     7   1 H        0.926     0.050     2.317     2.380
     8   1 H        0.926     0.053     2.284     2.363
     9   1 H        0.926     0.044     2.394     2.420
    10   6 C        2.954     0.072    26.382     8.425
    11   7 N        2.564    -0.125    23.750     7.238
    12   6 C        2.890     0.041    27.077     8.531
    13   6 C        2.915    -0.046    29.140     8.852
    14   6 C        2.922    -0.025    28.634     8.775
    15   6 C        2.918    -0.045    29.127     8.850
    16   1 H        0.926     0.042     2.418     2.431
    17   1 H        0.926     0.049     2.336     2.390
    18   1 H        0.926     0.076     2.020     2.222
    19  77 Ir       5.955    -0.158   388.425    36.446
    20   1 H        0.977     0.081     1.959     2.187
    21   5 B        2.627     0.402    16.046     6.770
    22   8 O        1.638    -0.411    21.073     6.197
    23   6 C        3.836     0.131    18.440     6.109
    24   6 C        3.755    -0.121    22.869     6.819
    25   1 H        0.925     0.053     2.281     2.362
    26   1 H        0.925     0.044     2.398     2.421
    27   1 H        0.925     0.050     2.319     2.382
    28   6 C        3.754    -0.108    22.621     6.782
    29   1 H        0.925     0.046     2.367     2.406
    30   1 H        0.925     0.040     2.446     2.446
    31   1 H        0.925     0.028     2.615     2.529
    32   6 C        3.840     0.131    18.431     6.107
    33   8 O        1.637    -0.405    20.958     6.180
    34   6 C        3.755    -0.119    22.836     6.814
    35   1 H        0.925     0.049     2.338     2.391
    36   1 H        0.925     0.046     2.376     2.411
    37   1 H        0.925     0.049     2.336     2.390
    38   6 C        3.754    -0.119    22.837     6.814
    39   1 H        0.925     0.047     2.360     2.402
    40   1 H        0.925     0.053     2.288     2.366
    41   1 H        0.925     0.044     2.394     2.419
    42   5 B        2.622     0.403    16.061     6.779
    43   8 O        1.637    -0.380    20.475     6.108
    44   6 C        3.835     0.128    18.477     6.115
    45   6 C        3.755    -0.126    22.970     6.834
    46   1 H        0.925     0.057     2.239     2.340
    47   1 H        0.925     0.056     2.246     2.344
    48   1 H        0.925     0.049     2.336     2.390
    49   6 C        3.755    -0.121    22.877     6.820
    50   1 H        0.925     0.048     2.349     2.397
    51   1 H        0.925     0.044     2.398     2.422
    52   1 H        0.925     0.052     2.298     2.370
    53   6 C        3.832     0.128    18.488     6.118
    54   8 O        1.637    -0.383    20.539     6.117
    55   6 C        3.755    -0.123    22.924     6.827
    56   1 H        0.925     0.052     2.295     2.369
    57   1 H        0.925     0.054     2.274     2.358
    58   1 H        0.925     0.048     2.348     2.396
    59   6 C        3.755    -0.124    22.936     6.829
    60   1 H        0.925     0.047     2.358     2.401
    61   1 H        0.925     0.053     2.287     2.365
    62   1 H        0.925     0.051     2.313     2.378
    63   5 B        2.626     0.402    16.052     6.772
    64   8 O        1.637    -0.375    20.384     6.094
    65   6 C        3.833     0.125    18.521     6.123
    66   6 C        3.755    -0.128    23.018     6.841
    67   1 H        0.925     0.057     2.229     2.335
    68   1 H        0.925     0.054     2.266     2.354
    69   1 H        0.925     0.048     2.341     2.392
    70   6 C        3.755    -0.129    23.031     6.843
    71   1 H        0.925     0.060     2.201     2.320
    72   1 H        0.925     0.049     2.327     2.385
    73   1 H        0.925     0.052     2.290     2.367
    74   6 C        3.829     0.127    18.501     6.120
    75   8 O        1.637    -0.385    20.572     6.122
    76   6 C        3.755    -0.124    22.925     6.827
    77   1 H        0.925     0.050     2.321     2.383
    78   1 H        0.925     0.052     2.292     2.368
    79   1 H        0.925     0.054     2.268     2.355
    80   6 C        3.755    -0.122    22.899     6.823
    81   1 H        0.925     0.039     2.461     2.453
    82   1 H        0.925     0.050     2.315     2.379
    83   1 H        0.925     0.054     2.276     2.359
    84   1 H        0.926     0.050     2.324     2.384
    85   1 H        0.926     0.047     2.362     2.403
    86   6 C        2.829    -0.017    28.434     8.738
    87   6 C        2.924    -0.035    28.861     8.810
    88   6 C        2.928    -0.048    29.185     8.860
    89   6 C        2.917    -0.040    28.997     8.830
    90   1 H        0.925     0.018     2.764     2.600
    91   6 C        2.970     0.011    27.767     8.643
    92   1 H        0.926     0.044     2.401     2.423
    93   6 C        2.923    -0.051    29.265     8.871
    94   1 H        0.925     0.023     2.691     2.565
    95   6 C        3.809    -0.067    21.768     6.642
    96   1 H        0.925     0.028     2.613     2.528
    97   6 C        3.812    -0.069    21.804     6.647
    98   1 H        0.925     0.058     2.228     2.334
    99   1 H        0.924     0.045     2.381     2.413
   100   6 C        2.952     0.099    25.798     8.331
   101   1 H        0.924     0.047     2.359     2.402
   102   1 H        0.924     0.063     2.162     2.299
   103   7 N        1.841    -0.248    27.310     7.745
   104   6 C        2.918    -0.053    29.327     8.881
   105   6 C        2.905     0.053    26.806     8.489
   106   6 C        2.927    -0.017    28.445     8.746
   107   1 H        0.926     0.039     2.463     2.454
   108   6 C        2.914    -0.049    29.229     8.865
   109   1 H        0.925     0.040     2.452     2.449
   110   1 H        0.926     0.040     2.442     2.444
   111   1 H        0.926     0.040     2.449     2.447

 Mol. C6AA /au·bohr⁶  :     132756.598986
 Mol. C8AA /au·bohr⁸  :    3500103.825599
 Mol. α(0) /au        :        566.974422


Wiberg/Mayer (AO) data.
largest (>0.10) Wiberg bond orders for each atom

 ---------------------------------------------------------------------------
     #   Z sym  total        # sym  WBO       # sym  WBO       # sym  WBO
 ---------------------------------------------------------------------------
     1   7 N    3.403 --     6 C    1.386     2 C    1.305    19 Ir   0.452
     2   6 C    3.979 --     3 C    1.345     1 N    1.305    10 C    1.097
     3   6 C    3.988 --     4 C    1.487     2 C    1.345     9 H    0.962
                             6 C    0.106
     4   6 C    3.985 --     3 C    1.487     5 C    1.376    84 H    0.969
     5   6 C    3.979 --     6 C    1.464     4 C    1.376     8 H    0.969
     6   6 C    3.979 --     5 C    1.464     1 N    1.386     7 H    0.957
                             3 C    0.106
     7   1 H    0.997 --     6 C    0.957
     8   1 H    0.996 --     5 C    0.969
     9   1 H    0.998 --     3 C    0.962
    10   6 C    3.979 --    15 C    1.349    11 N    1.299     2 C    1.097
    11   7 N    3.408 --    12 C    1.383    10 C    1.299    19 Ir   0.440
    12   6 C    3.973 --    13 C    1.461    11 N    1.383    18 H    0.947
                            15 C    0.105
    13   6 C    3.982 --    12 C    1.461    14 C    1.379    17 H    0.969
    14   6 C    3.982 --    15 C    1.483    13 C    1.379    85 H    0.969
    15   6 C    3.989 --    14 C    1.483    10 C    1.349    16 H    0.962
                            12 C    0.105
    16   1 H    0.998 --    15 C    0.962
    17   1 H    0.997 --    13 C    0.969
    18   1 H    0.994 --    12 C    0.947
    19  77 Ir   5.199 --    63 B    0.870    42 B    0.855    21 B    0.712
                            86 C    0.596    20 H    0.534     1 N    0.452
                            11 N    0.440
    20   1 H    0.990 --    19 Ir   0.534    86 C    0.342
    21   5 B    3.264 --    33 O    1.108    22 O    1.088    19 Ir   0.712
    22   8 O    2.187 --    21 B    1.088    23 C    0.944
    23   6 C    3.944 --    24 C    0.996    28 C    0.990    22 O    0.944
                            32 C    0.941
    24   6 C    3.994 --    23 C    0.996    26 H    0.984    27 H    0.983
                            25 H    0.983
    25   1 H    0.997 --    24 C    0.983
    26   1 H    0.997 --    24 C    0.984
    27   1 H    0.997 --    24 C    0.983
    28   6 C    3.997 --    23 C    0.990    31 H    0.985    29 H    0.984
                            30 H    0.984
    29   1 H    0.997 --    28 C    0.984
    30   1 H    0.998 --    28 C    0.984
    31   1 H    0.999 --    28 C    0.985
    32   6 C    3.941 --    38 C    0.997    34 C    0.991    23 C    0.941
                            33 O    0.940
    33   8 O    2.199 --    21 B    1.108    32 C    0.940
    34   6 C    3.994 --    32 C    0.991    36 H    0.984    35 H    0.983
                            37 H    0.983
    35   1 H    0.998 --    34 C    0.983
    36   1 H    0.997 --    34 C    0.984
    37   1 H    0.997 --    34 C    0.983
    38   6 C    3.994 --    32 C    0.997    41 H    0.984    39 H    0.983
                            40 H    0.983
    39   1 H    0.998 --    38 C    0.983
    40   1 H    0.997 --    38 C    0.983
    41   1 H    0.997 --    38 C    0.984
    42   5 B    3.336 --    43 O    1.120    54 O    1.106    19 Ir   0.855
    43   8 O    2.230 --    42 B    1.120    44 C    0.937
    44   6 C    3.937 --    45 C    0.996    49 C    0.991    53 C    0.939
                            43 O    0.937
    45   6 C    3.992 --    44 C    0.996    48 H    0.983    46 H    0.982
                            47 H    0.982
    46   1 H    0.997 --    45 C    0.982
    47   1 H    0.997 --    45 C    0.982
    48   1 H    0.997 --    45 C    0.983
    49   6 C    3.994 --    44 C    0.991    50 H    0.984    51 H    0.983
                            52 H    0.980
    50   1 H    0.997 --    49 C    0.984
    51   1 H    0.998 --    49 C    0.983
    52   1 H    0.997 --    49 C    0.980
    53   6 C    3.938 --    55 C    0.996    59 C    0.992    44 C    0.939
                            54 O    0.935
    54   8 O    2.225 --    42 B    1.106    53 C    0.935
    55   6 C    3.993 --    53 C    0.996    58 H    0.983    57 H    0.983
                            56 H    0.983
    56   1 H    0.997 --    55 C    0.983
    57   1 H    0.997 --    55 C    0.983
    58   1 H    0.996 --    55 C    0.983
    59   6 C    3.994 --    53 C    0.992    61 H    0.983    62 H    0.983
                            60 H    0.981
    60   1 H    0.998 --    59 C    0.981
    61   1 H    0.996 --    59 C    0.983
    62   1 H    0.997 --    59 C    0.983
    63   5 B    3.357 --    64 O    1.114    75 O    1.109    19 Ir   0.870
    64   8 O    2.230 --    63 B    1.114    65 C    0.940
    65   6 C    3.938 --    70 C    0.996    66 C    0.991    64 O    0.940
                            74 C    0.938
    66   6 C    3.993 --    65 C    0.991    69 H    0.983    68 H    0.982
                            67 H    0.979
    67   1 H    0.997 --    66 C    0.979
    68   1 H    0.997 --    66 C    0.982
    69   1 H    0.997 --    66 C    0.983
    70   6 C    3.992 --    65 C    0.996    72 H    0.984    73 H    0.982
                            71 H    0.982
    71   1 H    0.996 --    70 C    0.982
    72   1 H    0.997 --    70 C    0.984
    73   1 H    0.997 --    70 C    0.982
    74   6 C    3.936 --    76 C    0.996    80 C    0.991    65 C    0.938
                            75 O    0.937
    75   8 O    2.225 --    63 B    1.109    74 C    0.937
    76   6 C    3.993 --    74 C    0.996    77 H    0.983    78 H    0.983
                            79 H    0.982
    77   1 H    0.996 --    76 C    0.983
    78   1 H    0.997 --    76 C    0.983
    79   1 H    0.997 --    76 C    0.982
    80   6 C    3.995 --    74 C    0.991    81 H    0.983    83 H    0.983
                            82 H    0.983
    81   1 H    0.998 --    80 C    0.983
    82   1 H    0.997 --    80 C    0.983
    83   1 H    0.996 --    80 C    0.983
    84   1 H    0.997 --     4 C    0.969
    85   1 H    0.997 --    14 C    0.969
    86   6 C    3.954 --    88 C    1.387    87 C    1.387    19 Ir   0.596
                            20 H    0.342
    87   6 C    3.989 --    89 C    1.431    86 C    1.387    90 H    0.964
                            91 C    0.102
    88   6 C    3.987 --    91 C    1.418    86 C    1.387    92 H    0.959
                            89 C    0.106
    89   6 C    3.989 --    93 C    1.441    87 C    1.431    94 H    0.970
                            88 C    0.106
    90   1 H    0.999 --    87 C    0.964
    91   6 C    3.984 --    88 C    1.418    93 C    1.400    95 C    1.010
                            87 C    0.102
    92   1 H    0.997 --    88 C    0.959
    93   6 C    3.985 --    89 C    1.441    91 C    1.400    96 H    0.969
    94   1 H    0.999 --    89 C    0.970
    95   6 C    3.992 --    91 C    1.010    97 C    0.986    99 H    0.974
                            98 H    0.967
    96   1 H    0.997 --    93 C    0.969
    97   6 C    3.995 --   100 C    1.012    95 C    0.986   101 H    0.969
                           102 H    0.949
    98   1 H    0.996 --    95 C    0.967
    99   1 H    0.997 --    95 C    0.974
   100   6 C    3.976 --   103 N    1.414   104 C    1.381    97 C    1.012
                           108 C    0.110
   101   1 H    0.998 --    97 C    0.969
   102   1 H    0.996 --    97 C    0.949
   103   7 N    3.058 --   105 C    1.433   100 C    1.414
   104   6 C    3.990 --   106 C    1.463   100 C    1.381   107 H    0.969
                           105 C    0.116
   105   6 C    3.982 --   108 C    1.435   103 N    1.433   109 H    0.963
                           104 C    0.116
   106   6 C    3.990 --   104 C    1.463   108 C    1.426   110 H    0.969
   107   1 H    0.998 --   104 C    0.969
   108   6 C    3.991 --   105 C    1.435   106 C    1.426   111 H    0.970
                           100 C    0.110
   109   1 H    0.998 --   105 C    0.963
   110   1 H    0.998 --   106 C    0.969
   111   1 H    0.998 --   108 C    0.970
 ---------------------------------------------------------------------------

Topologies differ in total number of bonds
Writing topology from bond orders to xtbtopo.mol

molecular dipole:
                 x           y           z       tot (Debye)
 q only:        0.316      -0.057      -0.503
   full:       -0.747      -0.107      -0.949       3.083
molecular quadrupole (traceless):
                xx          xy          yy          xz          yz          zz
 q only:        8.075      -4.151       1.676       5.641       3.383      -9.752
  q+dip:       11.285      -6.970      -0.105      11.147      -1.230     -11.180
   full:        8.135      -6.561       1.850       7.834      -3.302      -9.985


           -------------------------------------------------
          | TOTAL ENERGY             -157.921983099556 Eh   |
          | GRADIENT NORM               0.032606967918 Eh/α |
          | HOMO-LUMO GAP               0.882283038428 eV   |
           -------------------------------------------------

------------------------------------------------------------------------
 * finished run on 2021/10/08 at 07:23:51.186     
------------------------------------------------------------------------
 total:
 * wall-time:     0 d,  0 h,  0 min,  0.168 sec
 *  cpu-time:     0 d,  0 h,  0 min,  0.983 sec
 * ratio c/w:     5.859 speedup
 SCF:
 * wall-time:     0 d,  0 h,  0 min,  0.122 sec
 *  cpu-time:     0 d,  0 h,  0 min,  0.729 sec
 * ratio c/w:     5.976 speedup

