      -----------------------------------------------------------      
     |                   =====================                   |     
     |                           x T B                           |     
     |                   =====================                   |     
     |                         S. Grimme                         |     
     |          Mulliken Center for Theoretical Chemistry        |     
     |                    University of Bonn                     |     
      -----------------------------------------------------------      

   * xtb version 6.4.1 (1a32961) compiled by 'knkr256@seskscpg007.prim.scp' on 2021-10-19

   xtb is free software: you can redistribute it and/or modify it under
   the terms of the GNU Lesser General Public License as published by
   the Free Software Foundation, either version 3 of the License, or
   (at your option) any later version.
   
   xtb is distributed in the hope that it will be useful,
   but WITHOUT ANY WARRANTY; without even the implied warranty of
   MERCHANTABILITY or FITNESS FOR A PARTICULAR PURPOSE.  See the
   GNU Lesser General Public License for more details.
   
   Cite this work as:
   * C. Bannwarth, E. Caldeweyher, S. Ehlert, A. Hansen, P. Pracht,
     J. Seibert, S. Spicher, S. Grimme, WIREs Comput. Mol. Sci., 2020, 11,
     e01493. DOI: 10.1002/wcms.1493
   
   for GFN2-xTB:
   * C. Bannwarth, S. Ehlert and S. Grimme., J. Chem. Theory Comput., 2019,
     15, 1652-1671. DOI: 10.1021/acs.jctc.8b01176
   for GFN1-xTB:
   * S. Grimme, C. Bannwarth, P. Shushkov, J. Chem. Theory Comput., 2017,
     13, 1989-2009. DOI: 10.1021/acs.jctc.7b00118
   for GFN0-xTB:
   * P. Pracht, E. Caldeweyher, S. Ehlert, S. Grimme, ChemRxiv, 2019, preprint.
     DOI: 10.26434/chemrxiv.8326202.v1
   for GFN-FF:
   * S. Spicher and S. Grimme, Angew. Chem. Int. Ed., 2020, 59, 15665-15673.
     DOI: 10.1002/anie.202004239
   
   for ALPB and GBSA implicit solvation:
   * S. Ehlert, M. Stahn, S. Spicher, S. Grimme, J. Chem. Theory Comput.,
     2021, 17, 4250-4261. DOI: 10.1021/acs.jctc.1c00471
   
   for DFT-D4:
   * E. Caldeweyher, C. Bannwarth and S. Grimme, J. Chem. Phys., 2017,
     147, 034112. DOI: 10.1063/1.4993215
   * E. Caldeweyher, S. Ehlert, A. Hansen, H. Neugebauer, S. Spicher,
     C. Bannwarth and S. Grimme, J. Chem. Phys., 2019, 150, 154122.
     DOI: 10.1063/1.5090222
   * E. Caldeweyher, J.-M. Mewes, S. Ehlert and S. Grimme, Phys. Chem. Chem. Phys.
     2020, 22, 8499-8512. DOI: 10.1039/D0CP00502A
   
   for sTDA-xTB:
   * S. Grimme and C. Bannwarth, J. Chem. Phys., 2016, 145, 054103.
     DOI: 10.1063/1.4959605
   
   in the mass-spec context:
   * V. Asgeirsson, C. Bauer and S. Grimme, Chem. Sci., 2017, 8, 4879.
     DOI: 10.1039/c7sc00601b
   * J. Koopman and S. Grimme, ACS Omega 2019, 4, 12, 15120-15133.
     DOI: 10.1021/acsomega.9b02011
   
   for metadynamics refer to:
   * S. Grimme, J. Chem. Theory Comput., 2019, 155, 2847-2862
     DOI: 10.1021/acs.jctc.9b00143
   
   for SPH calculations refer to:
   * S. Spicher and S. Grimme, J. Chem. Theory Comput., 2021, 17, 1701-1714
     DOI: 10.1021/acs.jctc.0c01306
   
   with help from (in alphabetical order)
   P. Atkinson, C. Bannwarth, F. Bohle, G. Brandenburg, E. Caldeweyher
   M. Checinski, S. Dohm, S. Ehlert, S. Ehrlich, I. Gerasimov, J. Koopman
   C. Lavigne, S. Lehtola, F. März, M. Müller, F. Musil, H. Neugebauer
   J. Pisarek, C. Plett, P. Pracht, J. Seibert, P. Shushkov, S. Spicher
   M. Stahn, M. Steiner, T. Strunk, J. Stückrath, T. Rose, and J. Unsleber
   
 * started run on 2022/01/14 at 15:00:53.211     

           -------------------------------------------------
          |                Calculation Setup                |
           -------------------------------------------------

          program call               : xtb xtbopt.xyz --sp --alpb thf -P 6
          hostname                   : seskscpg007.prim.scp
          coordinate file            : xtbopt.xyz
          omp threads                :                     6
          number of atoms            :                    95
          number of electrons        :                   250
          charge                     :                     0
          spin                       :                   0.0
          first test random number   :      0.39117059216346

   ID    Z sym.   atoms
    1    7 N      1, 11, 91
    2    6 C      2-6, 10, 12-15, 23, 24, 28, 32, 34, 38, 44, 45, 49, 53, 55,
                  59, 65, 66, 70, 74, 76, 80, 86-89, 93
    3    1 H      7-9, 16-18, 20, 25-27, 29-31, 35-37, 39-41, 46-48, 50-52,
                  56-58, 60-62, 67-69, 71-73, 77-79, 81-85, 90, 92, 94, 95
    4   77 Ir     19
    5    5 B      21, 42, 63
    6    8 O      22, 33, 43, 54, 64, 75

molecular fragmentation (1/2 indicates fragments):
111111111111111111111111111111111111111111111111111111111111111111111111
11111111111112222222222
# atoms in fragment 1/2:    85    10
 fragment masses (1/2) :      730.32       78.09
CMA distance (Bohr)    :   8.597
constraining FC (au)   :  0.0500

           -------------------------------------------------
          |                 G F N 2 - x T B                 |
           -------------------------------------------------

        Reference                      10.1021/acs.jctc.8b01176
      * Hamiltonian:
        H0-scaling (s, p, d)           1.850000    2.230000    2.230000
        zeta-weighting                 0.500000
      * Dispersion:
        s8                             2.700000
        a1                             0.520000
        a2                             5.000000
        s9                             5.000000
      * Repulsion:
        kExp                           1.500000    1.000000
        rExp                           1.000000
      * Coulomb:
        alpha                          2.000000
        third order                    shell-resolved
        anisotropic                    true
        a3                             3.000000
        a5                             4.000000
        cn-shift                       1.200000
        cn-exp                         4.000000
        max-rad                        5.000000

      * Solvation model:               ALPB
        Solvent                        thf
        Parameter file                 internal GFN2-xTB/ALPB
        Dielectric constant                7.6000E+00
        Reference state                gsolv [1 M gas/solution]
        Free energy shift                  5.3248E-03 Eh       3.3414E+00 kcal/mol
        Temperature                        2.9815E+02 K
        Density                            8.8300E-01 kg/L
        Solvent mass                       7.2106E+01 g/mol
        Interaction kernel             P16
        Born radius scaling (c1)           1.7311E+00
        Born radii integrator          GBOBC
        Born offset                        0.0000E+00 a0       0.0000E+00 AA
        H-bond correction              true
        Ion screening                  false
        Surface tension                    1.0000E-05 Eh       1.5569E+01 dyn/cm
        Grid points                               230 per atom
q/qsh data taken from xtbrestart
CAMM data taken from xtbrestart

          ...................................................
          :                      SETUP                      :
          :.................................................:
          :  # basis functions                 239          :
          :  # atomic orbitals                 238          :
          :  # shells                          142          :
          :  # electrons                       250          :
          :  max. iterations                   250          :
          :  Hamiltonian                  GFN2-xTB          :
          :  restarted?                       true          :
          :  GBSA solvation                   true          :
          :  PC potential                    false          :
          :  electronic temp.          300.0000000     K    :
          :  accuracy                    1.0000000          :
          :  -> integral cutoff          0.2500000E+02      :
          :  -> integral neglect         0.1000000E-07      :
          :  -> SCF convergence          0.1000000E-05 Eh   :
          :  -> wf. convergence          0.1000000E-03 e    :
          :  Broyden damping             0.4000000          :
          ...................................................

 iter      E             dE          RMSdq      gap      omega  full diag
   1   -138.4561158 -0.138456E+03  0.298E-05    0.89       0.0  T
   2   -138.4561158  0.368203E-09  0.673E-05    0.89     152.4  T
   3   -138.4561158 -0.430362E-09  0.133E-05    0.89     771.0  T

   *** convergence criteria satisfied after 3 iterations ***

         #    Occupation            Energy/Eh            Energy/eV
      -------------------------------------------------------------
         1        2.0000           -0.6753342             -18.3768
       ...           ...                  ...                  ...
       119        2.0000           -0.3586225              -9.7586
       120        2.0000           -0.3469174              -9.4401
       121        2.0000           -0.3331301              -9.0649
       122        2.0000           -0.3242733              -8.8239
       123        2.0000           -0.3202816              -8.7153
       124        2.0000           -0.3129321              -8.5153
       125        2.0000           -0.3109404              -8.4611 (HOMO)
       126                         -0.2782334              -7.5711 (LUMO)
       127                         -0.2502626              -6.8100
       128                         -0.2476642              -6.7393
       129                         -0.2316044              -6.3023
       130                         -0.2199744              -5.9858
       ...                                ...                  ...
       238                          3.7700860             102.5893
      -------------------------------------------------------------
                  HL-Gap            0.0327070 Eh            0.8900 eV
             Fermi-level           -0.2945318 Eh           -8.0146 eV

 SCC (total)                   0 d,  0 h,  0 min,  0.088 sec
 SCC setup                      ...        0 min,  0.003 sec (  3.861%)
 Dispersion                     ...        0 min,  0.002 sec (  2.528%)
 classical contributions        ...        0 min,  0.000 sec (  0.164%)
 integral evaluation            ...        0 min,  0.010 sec ( 11.838%)
 iterations                     ...        0 min,  0.035 sec ( 40.103%)
 molecular gradient             ...        0 min,  0.036 sec ( 40.669%)
 printout                       ...        0 min,  0.001 sec (  0.754%)

         :::::::::::::::::::::::::::::::::::::::::::::::::::::
         ::                     SUMMARY                     ::
         :::::::::::::::::::::::::::::::::::::::::::::::::::::
         :: total energy            -136.700097422545 Eh    ::
         :: total w/o Gsasa/hb      -136.661823085416 Eh    ::
         :: gradient norm              0.033812863951 Eh/a0 ::
         :: HOMO-LUMO gap              0.890002296393 eV    ::
         ::.................................................::
         :: SCC energy              -138.456115806870 Eh    ::
         :: -> isotropic ES            0.240876419987 Eh    ::
         :: -> anisotropic ES          0.013183188525 Eh    ::
         :: -> anisotropic XC          0.051608842540 Eh    ::
         :: -> dispersion             -0.130829472967 Eh    ::
         :: -> Gsolv                  -0.048100065022 Eh    ::
         ::    -> Gelec               -0.009825727893 Eh    ::
         ::    -> Gsasa               -0.041198093044 Eh    ::
         ::    -> Ghb                 -0.002401059529 Eh    ::
         ::    -> Gshift               0.005324815444 Eh    ::
         :: repulsion energy           1.748306755297 Eh    ::
         :: add. restraining           0.000000000000 Eh    ::
         :: total charge               0.000000000009 e     ::
         :::::::::::::::::::::::::::::::::::::::::::::::::::::

           -------------------------------------------------
          |                Property Printout                |
           -------------------------------------------------

    * Orbital Energies and Occupations

         #    Occupation            Energy/Eh            Energy/eV
      -------------------------------------------------------------
         1        2.0000           -0.6753342             -18.3768
       ...           ...                  ...                  ...
       113        2.0000           -0.4024166             -10.9503
       114        2.0000           -0.3938047             -10.7160
       115        2.0000           -0.3895114             -10.5991
       116        2.0000           -0.3871051             -10.5337
       117        2.0000           -0.3834820             -10.4351
       118        2.0000           -0.3825833             -10.4106
       119        2.0000           -0.3586225              -9.7586
       120        2.0000           -0.3469174              -9.4401
       121        2.0000           -0.3331301              -9.0649
       122        2.0000           -0.3242733              -8.8239
       123        2.0000           -0.3202816              -8.7153
       124        2.0000           -0.3129321              -8.5153
       125        2.0000           -0.3109404              -8.4611 (HOMO)
       126                         -0.2782334              -7.5711 (LUMO)
       127                         -0.2502626              -6.8100
       128                         -0.2476642              -6.7393
       129                         -0.2316044              -6.3023
       130                         -0.2199744              -5.9858
       131                         -0.2067041              -5.6247
       132                         -0.1896390              -5.1603
       133                         -0.1515522              -4.1239
       134                         -0.1282586              -3.4901
       135                         -0.1246397              -3.3916
       136                         -0.1118280              -3.0430
       ...                                ...                  ...
       238                          3.7700860             102.5893
      -------------------------------------------------------------
                  HL-Gap            0.0327070 Eh            0.8900 eV
             Fermi-level           -0.2945318 Eh           -8.0146 eV

     #   Z          covCN         q      C6AA      α(0)
     1   7 N        2.548    -0.122    23.677     7.226
     2   6 C        2.954     0.076    26.296     8.411
     3   6 C        2.918    -0.044    29.082     8.843
     4   6 C        2.923    -0.022    28.555     8.763
     5   6 C        2.915    -0.044    29.086     8.844
     6   6 C        2.892     0.048    26.919     8.506
     7   1 H        0.926     0.053     2.281     2.362
     8   1 H        0.926     0.057     2.235     2.338
     9   1 H        0.926     0.048     2.339     2.392
    10   6 C        2.953     0.073    26.373     8.423
    11   7 N        2.549    -0.130    23.850     7.253
    12   6 C        2.890     0.042    27.065     8.529
    13   6 C        2.915    -0.045    29.112     8.848
    14   6 C        2.922    -0.025    28.619     8.773
    15   6 C        2.918    -0.045    29.117     8.849
    16   1 H        0.926     0.047     2.358     2.401
    17   1 H        0.926     0.052     2.299     2.371
    18   1 H        0.926     0.075     2.031     2.229
    19  77 Ir       5.935    -0.154   388.006    36.426
    20   1 H        0.977     0.087     1.904     2.156
    21   5 B        2.632     0.403    16.008     6.757
    22   8 O        1.638    -0.406    20.972     6.182
    23   6 C        3.836     0.130    18.455     6.112
    24   6 C        3.755    -0.122    22.894     6.823
    25   1 H        0.925     0.054     2.273     2.358
    26   1 H        0.925     0.045     2.379     2.412
    27   1 H        0.925     0.052     2.297     2.370
    28   6 C        3.754    -0.110    22.658     6.787
    29   1 H        0.925     0.048     2.343     2.394
    30   1 H        0.925     0.042     2.417     2.431
    31   1 H        0.925     0.028     2.617     2.530
    32   6 C        3.842     0.131    18.438     6.108
    33   8 O        1.637    -0.403    20.923     6.174
    34   6 C        3.755    -0.121    22.884     6.821
    35   1 H        0.925     0.052     2.296     2.370
    36   1 H        0.925     0.046     2.364     2.405
    37   1 H        0.925     0.049     2.327     2.385
    38   6 C        3.754    -0.120    22.861     6.818
    39   1 H        0.925     0.047     2.357     2.401
    40   1 H        0.925     0.053     2.278     2.360
    41   1 H        0.925     0.046     2.373     2.409
    42   5 B        2.625     0.401    16.065     6.776
    43   8 O        1.637    -0.384    20.551     6.119
    44   6 C        3.837     0.129    18.471     6.114
    45   6 C        3.754    -0.126    22.984     6.836
    46   1 H        0.925     0.056     2.242     2.341
    47   1 H        0.925     0.056     2.243     2.342
    48   1 H        0.925     0.050     2.320     2.382
    49   6 C        3.755    -0.121    22.884     6.821
    50   1 H        0.925     0.049     2.327     2.386
    51   1 H        0.925     0.047     2.364     2.404
    52   1 H        0.925     0.051     2.301     2.372
    53   6 C        3.832     0.128    18.488     6.118
    54   8 O        1.637    -0.384    20.552     6.119
    55   6 C        3.755    -0.124    22.939     6.829
    56   1 H        0.925     0.054     2.270     2.356
    57   1 H        0.925     0.054     2.271     2.357
    58   1 H        0.925     0.049     2.335     2.389
    59   6 C        3.755    -0.124    22.927     6.828
    60   1 H        0.925     0.047     2.356     2.400
    61   1 H        0.925     0.053     2.283     2.363
    62   1 H        0.925     0.049     2.331     2.387
    63   5 B        2.628     0.402    16.040     6.768
    64   8 O        1.637    -0.380    20.470     6.107
    65   6 C        3.833     0.125    18.524     6.123
    66   6 C        3.755    -0.131    23.066     6.848
    67   1 H        0.925     0.059     2.215     2.327
    68   1 H        0.925     0.054     2.268     2.355
    69   1 H        0.925     0.051     2.310     2.377
    70   6 C        3.755    -0.129    23.039     6.844
    71   1 H        0.925     0.061     2.191     2.315
    72   1 H        0.925     0.051     2.306     2.375
    73   1 H        0.925     0.052     2.293     2.368
    74   6 C        3.830     0.127    18.499     6.120
    75   8 O        1.637    -0.379    20.454     6.105
    76   6 C        3.755    -0.125    22.947     6.830
    77   1 H        0.925     0.051     2.302     2.373
    78   1 H        0.925     0.054     2.268     2.355
    79   1 H        0.925     0.055     2.255     2.348
    80   6 C        3.755    -0.122    22.902     6.824
    81   1 H        0.925     0.040     2.442     2.444
    82   1 H        0.925     0.050     2.320     2.382
    83   1 H        0.925     0.055     2.257     2.349
    84   1 H        0.926     0.054     2.268     2.355
    85   1 H        0.926     0.051     2.312     2.378
    86   6 C        2.824    -0.034    28.833     8.799
    87   6 C        2.934    -0.014    28.355     8.733
    88   6 C        2.912     0.054    26.794     8.488
    89   6 C        2.910    -0.049    29.205     8.861
    90   1 H        0.925     0.027     2.637     2.539
    91   7 N        1.835    -0.244    27.215     7.731
    92   1 H        0.925     0.040     2.453     2.449
    93   6 C        2.909     0.044    27.016     8.523
    94   1 H        0.926     0.032     2.554     2.499
    95   1 H        0.925     0.034     2.533     2.489

 Mol. C6AA /au·bohr⁶  :      96281.759218
 Mol. C8AA /au·bohr⁸  :    2573076.409770
 Mol. α(0) /au        :        481.171593


Wiberg/Mayer (AO) data.
largest (>0.10) Wiberg bond orders for each atom

 ---------------------------------------------------------------------------
     #   Z sym  total        # sym  WBO       # sym  WBO       # sym  WBO
 ---------------------------------------------------------------------------
     1   7 N    3.405 --     6 C    1.389     2 C    1.312    19 Ir   0.444
     2   6 C    3.979 --     3 C    1.348     1 N    1.312    10 C    1.092
     3   6 C    3.987 --     4 C    1.484     2 C    1.348     9 H    0.962
                             6 C    0.106
     4   6 C    3.985 --     3 C    1.484     5 C    1.382    84 H    0.969
     5   6 C    3.979 --     6 C    1.460     4 C    1.382     8 H    0.968
     6   6 C    3.978 --     5 C    1.460     1 N    1.389     7 H    0.957
                             3 C    0.106
     7   1 H    0.997 --     6 C    0.957
     8   1 H    0.996 --     5 C    0.968
     9   1 H    0.997 --     3 C    0.962
    10   6 C    3.978 --    15 C    1.354    11 N    1.302     2 C    1.092
    11   7 N    3.400 --    12 C    1.385    10 C    1.302    19 Ir   0.431
    12   6 C    3.973 --    13 C    1.458    11 N    1.385    18 H    0.948
                            15 C    0.105
    13   6 C    3.982 --    12 C    1.458    14 C    1.384    17 H    0.969
    14   6 C    3.982 --    15 C    1.478    13 C    1.384    85 H    0.969
    15   6 C    3.989 --    14 C    1.478    10 C    1.354    16 H    0.962
                            12 C    0.105
    16   1 H    0.997 --    15 C    0.962
    17   1 H    0.996 --    13 C    0.969
    18   1 H    0.994 --    12 C    0.948
    19  77 Ir   5.179 --    63 B    0.865    42 B    0.856    21 B    0.728
                            86 C    0.585    20 H    0.531     1 N    0.444
                            11 N    0.431
    20   1 H    0.990 --    19 Ir   0.531    86 C    0.351
    21   5 B    3.277 --    33 O    1.112    22 O    1.095    19 Ir   0.728
    22   8 O    2.195 --    21 B    1.095    23 C    0.942
    23   6 C    3.943 --    24 C    0.997    28 C    0.990    22 O    0.942
                            32 C    0.941
    24   6 C    3.993 --    23 C    0.997    26 H    0.984    27 H    0.983
                            25 H    0.983
    25   1 H    0.997 --    24 C    0.983
    26   1 H    0.997 --    24 C    0.984
    27   1 H    0.997 --    24 C    0.983
    28   6 C    3.997 --    23 C    0.990    31 H    0.985    30 H    0.984
                            29 H    0.984
    29   1 H    0.997 --    28 C    0.984
    30   1 H    0.998 --    28 C    0.984
    31   1 H    0.999 --    28 C    0.985
    32   6 C    3.939 --    38 C    0.997    34 C    0.991    23 C    0.941
                            33 O    0.939
    33   8 O    2.201 --    21 B    1.112    32 C    0.939
    34   6 C    3.994 --    32 C    0.991    36 H    0.984    37 H    0.982
                            35 H    0.981
    35   1 H    0.997 --    34 C    0.981
    36   1 H    0.997 --    34 C    0.984
    37   1 H    0.997 --    34 C    0.982
    38   6 C    3.994 --    32 C    0.997    41 H    0.984    39 H    0.983
                            40 H    0.983
    39   1 H    0.998 --    38 C    0.983
    40   1 H    0.997 --    38 C    0.983
    41   1 H    0.997 --    38 C    0.984
    42   5 B    3.335 --    43 O    1.118    54 O    1.109    19 Ir   0.856
    43   8 O    2.226 --    42 B    1.118    44 C    0.935
    44   6 C    3.936 --    45 C    0.997    49 C    0.991    53 C    0.939
                            43 O    0.935
    45   6 C    3.992 --    44 C    0.997    48 H    0.983    46 H    0.982
                            47 H    0.982
    46   1 H    0.997 --    45 C    0.982
    47   1 H    0.997 --    45 C    0.982
    48   1 H    0.996 --    45 C    0.983
    49   6 C    3.994 --    44 C    0.991    50 H    0.983    51 H    0.983
                            52 H    0.980
    50   1 H    0.997 --    49 C    0.983
    51   1 H    0.998 --    49 C    0.983
    52   1 H    0.997 --    49 C    0.980
    53   6 C    3.937 --    55 C    0.996    59 C    0.992    44 C    0.939
                            54 O    0.933
    54   8 O    2.227 --    42 B    1.109    53 C    0.933
    55   6 C    3.993 --    53 C    0.996    58 H    0.983    57 H    0.983
                            56 H    0.982
    56   1 H    0.997 --    55 C    0.982
    57   1 H    0.997 --    55 C    0.983
    58   1 H    0.996 --    55 C    0.983
    59   6 C    3.994 --    53 C    0.992    62 H    0.983    61 H    0.983
                            60 H    0.982
    60   1 H    0.998 --    59 C    0.982
    61   1 H    0.996 --    59 C    0.983
    62   1 H    0.997 --    59 C    0.983
    63   5 B    3.362 --    75 O    1.122    64 O    1.111    19 Ir   0.865
    64   8 O    2.227 --    63 B    1.111    65 C    0.937
    65   6 C    3.937 --    70 C    0.997    66 C    0.991    74 C    0.938
                            64 O    0.937
    66   6 C    3.992 --    65 C    0.991    69 H    0.983    68 H    0.982
                            67 H    0.979
    67   1 H    0.997 --    66 C    0.979
    68   1 H    0.997 --    66 C    0.982
    69   1 H    0.996 --    66 C    0.983
    70   6 C    3.992 --    65 C    0.997    72 H    0.983    73 H    0.982
                            71 H    0.982
    71   1 H    0.996 --    70 C    0.982
    72   1 H    0.996 --    70 C    0.983
    73   1 H    0.997 --    70 C    0.982
    74   6 C    3.934 --    76 C    0.996    80 C    0.991    65 C    0.938
                            75 O    0.935
    75   8 O    2.236 --    63 B    1.122    74 C    0.935
    76   6 C    3.992 --    74 C    0.996    77 H    0.983    78 H    0.982
                            79 H    0.982
    77   1 H    0.996 --    76 C    0.983
    78   1 H    0.997 --    76 C    0.982
    79   1 H    0.997 --    76 C    0.982
    80   6 C    3.995 --    74 C    0.991    81 H    0.984    83 H    0.983
                            82 H    0.983
    81   1 H    0.998 --    80 C    0.984
    82   1 H    0.997 --    80 C    0.983
    83   1 H    0.996 --    80 C    0.983
    84   1 H    0.996 --     4 C    0.969
    85   1 H    0.996 --    14 C    0.969
    86   6 C    3.945 --    87 C    1.393    88 C    1.358    19 Ir   0.585
                            20 H    0.351    93 C    0.103
    87   6 C    3.991 --    89 C    1.431    86 C    1.393    90 H    0.964
    88   6 C    3.980 --    91 N    1.451    86 C    1.358    92 H    0.956
                            89 C    0.108
    89   6 C    3.988 --    93 C    1.431    87 C    1.431    94 H    0.969
                            88 C    0.108
    90   1 H    0.999 --    87 C    0.964
    91   7 N    3.058 --    88 C    1.451    93 C    1.415
    92   1 H    0.998 --    88 C    0.956
    93   6 C    3.979 --    89 C    1.431    91 N    1.415    95 H    0.964
                            86 C    0.103
    94   1 H    0.998 --    89 C    0.969
    95   1 H    0.996 --    93 C    0.964
 ---------------------------------------------------------------------------

Topologies differ in total number of bonds
Writing topology from bond orders to xtbtopo.mol

molecular dipole:
                 x           y           z       tot (Debye)
 q only:       -0.139       0.358      -1.524
   full:       -1.578       0.520      -2.179       6.964
molecular quadrupole (traceless):
                xx          xy          yy          xz          yz          zz
 q only:       17.094       3.130       1.961      -2.439      14.623     -19.055
  q+dip:       21.317       6.260       2.719      -6.658      19.184     -24.036
   full:       18.517       6.806       5.176      -9.035      16.190     -23.693


           -------------------------------------------------
          | TOTAL ENERGY             -136.700097422545 Eh   |
          | GRADIENT NORM               0.033812863951 Eh/α |
          | HOMO-LUMO GAP               0.890002296393 eV   |
           -------------------------------------------------

------------------------------------------------------------------------
 * finished run on 2022/01/14 at 15:00:53.329     
------------------------------------------------------------------------
 total:
 * wall-time:     0 d,  0 h,  0 min,  0.118 sec
 *  cpu-time:     0 d,  0 h,  0 min,  0.681 sec
 * ratio c/w:     5.780 speedup
 SCF:
 * wall-time:     0 d,  0 h,  0 min,  0.090 sec
 *  cpu-time:     0 d,  0 h,  0 min,  0.536 sec
 * ratio c/w:     5.971 speedup

