13
 energy: -19.605963344427 gnorm: 0.054340516875 xtb: 6.4.1 (1a32961)
C         1.07838000000000   -1.16823000000000    0.01356000000000
C         1.81067000000000   -0.00569000000000    0.00716000000000
C         1.07633000000000    1.15567000000000   -0.00555000000000
N        -0.26968000000000    1.18492000000000   -0.00882000000000
C        -0.89389000000000   -0.00833000000000    0.00162000000000
C        -2.39011000000000   -0.01668000000000    0.00989000000000
N        -0.26697000000000   -1.20096000000000    0.01086000000000
H         1.56550000000000   -2.13885000000000    0.02204000000000
H         2.89102000000000   -0.00429000000000    0.01205000000000
H         1.56064000000000    2.12742000000000   -0.01267000000000
H        -2.78942000000000    1.00217000000000    0.01647000000000
H        -2.75396000000000   -0.53653000000000    0.90120000000000
H        -2.76609000000000   -0.53101000000000   -0.87930000000000
13
 energy: -19.608263838325 gnorm: 0.017747511459 xtb: 6.4.1 (1a32961)
C         1.06327031804389   -1.17683801494198    0.01371111614439
C         1.79813096503105   -0.00506690688384    0.00610869397484
C         1.06167466817741    1.16515431384737   -0.00503704738349
N        -0.26803160125627    1.17602207050622   -0.00531820818038
C        -0.88310923683134   -0.00721556858265    0.00641065990662
C        -2.37328805444114   -0.01390531184297    0.00980573632936
N        -0.26529664513201   -1.19032049460305    0.01396126507156
H         1.53741407186941   -2.15191679185294    0.02106931535269
H         2.87575288904777   -0.00401170942915    0.00884584888574
H         1.53370312921807    2.14109156444517   -0.01392491890300
H        -2.75163475545637    1.00677648296923    0.01398831767816
H        -2.73498265967767   -0.54291741636740    0.89040379682543
H        -2.74118308859282   -0.53724221726400   -0.87151457570192
13
 energy: -19.608469413280 gnorm: 0.002018438336 xtb: 6.4.1 (1a32961)
C         1.05931154686276   -1.18066241273207    0.01466359982840
C         1.79560223643808   -0.00468987741400    0.00595598038054
C         1.05715018670016    1.16878538884944   -0.00424189509420
N        -0.26644061843346    1.17039485344334   -0.00430685258289
C        -0.88048014754608   -0.00761586547677    0.00631249209990
C        -2.37041576495959   -0.01205022967877    0.00992137477257
N        -0.26269385678190   -1.18544546780056    0.01490358278010
H         1.53056586944310   -2.15599886880182    0.02088632440693
H         2.87225455071800   -0.00350281357990    0.00660757999582
H         1.52582561562164    2.14528479668709   -0.01368072737701
H        -2.74071737192109    1.00828566924995    0.01313983439668
H        -2.73170711010453   -0.54423223494675    0.88686464931702
H        -2.73583513603709   -0.53894293779919   -0.86851594292386
13
 energy: -19.608473821923 gnorm: 0.000730484581 xtb: 6.4.1 (1a32961)
C         1.05967966691015   -1.18105665053309    0.01424465225241
C         1.79623977110602   -0.00456960333465    0.00496684264815
C         1.05721599613886    1.16900267681582   -0.00436085031764
N        -0.26647858760231    1.16969804519718   -0.00299006665600
C        -0.88132614585278   -0.00805762139169    0.00808059086434
C        -2.37164507864529   -0.01190346523438    0.00976306925930
N        -0.26231907854989   -1.18547168914340    0.01605418969956
H         1.53200386329500   -2.15567393862724    0.02135706650735
H         2.87292541149315   -0.00329480106574    0.00499056495000
H         1.52651666035482    2.14503134797409   -0.01312914286278
H        -2.74067373130447    1.00861988133280    0.01225120653479
H        -2.73385889252860   -0.54380489156973    0.88661193770870
H        -2.73585985481465   -0.53890929041996   -0.86933006058816
13
 energy: -19.608474299990 gnorm: 0.000523506094 xtb: 6.4.1 (1a32961)
C         1.05990933348558   -1.18128495961639    0.01498071956688
C         1.79661898593898   -0.00441950767646    0.00485103897031
C         1.05707297245748    1.16904603203735   -0.00356139322544
N        -0.26665395435245    1.16906920878711   -0.00247576880725
C        -0.88213170718569   -0.00865185273799    0.00747943656648
C        -2.37262740199461   -0.01180904470728    0.00965258152027
N        -0.26199781345998   -1.18578666541846    0.01647749971842
H         1.53380327788552   -2.15498290876534    0.02138326681569
H         2.87332389778079   -0.00310934450597    0.00325500550386
H         1.52728296501140    2.14447764978783   -0.01250144454696
H        -2.74037416667572    1.00899789073601    0.01161832453850
H        -2.73515071694918   -0.54299604530794    0.88690856088363
H        -2.73665567194210   -0.53894045261246   -0.86955782750439
