99
 energy: -148.600004826692 gnorm: 0.092732226768 xtb: 6.4.1 (1a32961)
N        -0.96510000000000   -2.11530000000000   -0.24090000000000
C        -2.24700000000000   -1.69840000000000   -0.36220000000000
C        -3.14040000000000   -2.36820000000000   -1.21200000000000
C        -2.70220000000000   -3.47560000000000   -1.93050000000000
C        -1.37780000000000   -3.89880000000000   -1.78760000000000
C        -0.54290000000000   -3.18670000000000   -0.93510000000000
H         0.49810000000000   -3.45630000000000   -0.78940000000000
H        -0.99570000000000   -4.76030000000000   -2.32770000000000
H        -4.16500000000000   -2.02890000000000   -1.31830000000000
C        -2.62130000000000   -0.50950000000000    0.44100000000000
N        -1.62600000000000    0.07330000000000    1.16020000000000
C        -1.89680000000000    1.15240000000000    1.91690000000000
C        -3.17230000000000    1.70330000000000    1.99650000000000
C        -4.20510000000000    1.11740000000000    1.26270000000000
C        -3.92610000000000    0.00250000000000    0.47820000000000
H        -4.71960000000000   -0.46420000000000   -0.09520000000000
H        -3.34630000000000    2.57510000000000    2.62070000000000
H        -1.04450000000000    1.57420000000000    2.43690000000000
Ir        0.42150000000000   -0.81650000000000    0.91330000000000
H         0.87260000000000   -2.23030000000000    1.54050000000000
B         0.50670000000000    0.41560000000000   -0.81540000000000
O         0.19500000000000   -0.04700000000000   -2.09150000000000
C         0.00650000000000    1.10040000000000   -2.95430000000000
C         0.49020000000000    0.74740000000000   -4.35780000000000
H         1.51610000000000    0.37380000000000   -4.33700000000000
H         0.44730000000000    1.62240000000000   -5.01670000000000
H        -0.14740000000000   -0.03390000000000   -4.78430000000000
C        -1.50120000000000    1.39560000000000   -2.96670000000000
H        -1.75370000000000    2.21460000000000   -3.64850000000000
H        -2.03200000000000    0.49450000000000   -3.28930000000000
H        -1.85170000000000    1.65210000000000   -1.96220000000000
C         0.84230000000000    2.20670000000000   -2.22040000000000
O         0.75200000000000    1.78260000000000   -0.83690000000000
C         2.32930000000000    2.18620000000000   -2.59900000000000
H         2.74130000000000    1.18500000000000   -2.45750000000000
H         2.48870000000000    2.51300000000000   -3.63180000000000
H         2.87200000000000    2.86270000000000   -1.93200000000000
C         0.28440000000000    3.62290000000000   -2.33660000000000
H        -0.72650000000000    3.69040000000000   -1.92910000000000
H         0.92130000000000    4.31480000000000   -1.77610000000000
H         0.26430000000000    3.94810000000000   -3.38320000000000
B         1.56300000000000    0.60960000000000    1.84840000000000
O         2.92780000000000    0.55230000000000    2.15020000000000
C         3.36330000000000    1.88660000000000    2.50260000000000
C         4.53140000000000    1.78590000000000    3.47740000000000
H         4.27910000000000    1.16090000000000    4.33690000000000
H         5.39390000000000    1.33790000000000    2.97340000000000
H         4.82390000000000    2.77870000000000    3.83820000000000
C         3.79700000000000    2.56850000000000    1.19670000000000
H         4.20020000000000    3.57090000000000    1.37680000000000
H         4.56740000000000    1.95560000000000    0.72110000000000
H         2.95240000000000    2.63260000000000    0.50540000000000
C         2.05040000000000    2.50090000000000    3.09320000000000
O         1.03750000000000    1.81620000000000    2.31910000000000
C         1.89100000000000    4.00450000000000    2.88650000000000
H         1.87290000000000    4.25440000000000    1.82410000000000
H         0.94940000000000    4.34260000000000    3.33170000000000
H         2.71080000000000    4.55150000000000    3.36630000000000
C         1.82470000000000    2.13200000000000    4.56520000000000
H         1.92610000000000    1.05330000000000    4.71320000000000
H         2.52610000000000    2.65280000000000    5.22540000000000
H         0.80630000000000    2.41580000000000    4.84900000000000
B         2.27820000000000   -1.33090000000000    0.17410000000000
O         2.89460000000000   -2.57740000000000    0.38450000000000
C         4.26930000000000   -2.48200000000000   -0.07210000000000
C         5.10900000000000   -2.05380000000000    1.14010000000000
H         4.76350000000000   -1.08740000000000    1.51750000000000
H         4.98050000000000   -2.79470000000000    1.93590000000000
H         6.17420000000000   -1.99290000000000    0.89300000000000
C         4.71950000000000   -3.84660000000000   -0.58470000000000
H         4.75280000000000   -4.56130000000000    0.24420000000000
H         5.72330000000000   -3.78370000000000   -1.02010000000000
H         4.03500000000000   -4.23600000000000   -1.34170000000000
C         4.16440000000000   -1.36220000000000   -1.16300000000000
O         3.08520000000000   -0.55030000000000   -0.65400000000000
C         5.40720000000000   -0.48870000000000   -1.31550000000000
H         6.27320000000000   -1.09010000000000   -1.61530000000000
H         5.23300000000000    0.26930000000000   -2.08590000000000
H         5.64270000000000    0.02650000000000   -0.38240000000000
C         3.71800000000000   -1.89830000000000   -2.53110000000000
H         2.82530000000000   -2.52160000000000   -2.42740000000000
H         3.46090000000000   -1.05250000000000   -3.17550000000000
H         4.50570000000000   -2.48290000000000   -3.01790000000000
H        -3.38500000000000   -4.00130000000000   -2.59310000000000
H        -5.21400000000000    1.52080000000000    1.29960000000000
C         0.23590000000001   -1.68140000000000    2.96030000000000
O        -0.74523631002545   -2.12997504994184    3.78141524285409
C         1.43496333927172   -1.73345308378388    3.70941356504815
C        -0.22728913255169   -2.41484193391202    5.00368325031528
C         1.10931713391117   -2.16762540117711    5.02646153395303
C         2.89281195797437   -1.89151247909027    3.50783835507927
H        -0.86833983564525   -2.80874699778665    5.77006483787136
H         1.81809092852561   -2.31343323224502    5.82439603089423
O         3.34374863457223   -2.93967791317268    3.09293285024980
O         3.68162796678812   -0.97416384977492    4.11058942035220
C         5.10976431686338   -1.11503775729056    4.10372278137347
H         5.53567494664299   -0.61114380260950    3.23403701304516
H         5.42317453651566   -2.15953323824979    4.08056486637588
H         5.48821106298714   -0.62081972043518    5.00067193554213
99
 energy: -148.614536427442 gnorm: 0.064405911915 xtb: 6.4.1 (1a32961)
N        -0.96585250057005   -2.11047176639657   -0.24383578114645
C        -2.24155108751166   -1.69608658844619   -0.35929171162547
C        -3.13519817575833   -2.36710701294450   -1.20248071967360
C        -2.70396487612249   -3.46960139201260   -1.91846159822742
C        -1.38452027363822   -3.88841136515537   -1.78013760217032
C        -0.55514902725053   -3.17568120207329   -0.93490212555500
H         0.48007664655037   -3.45283694176747   -0.78670139517618
H        -1.00684942425098   -4.74752660679085   -2.31629819228269
H        -4.15578926153812   -2.03204117031873   -1.30684964929863
C        -2.61320852201690   -0.51548124466069    0.44176959424739
N        -1.62194270529170    0.07054566142286    1.14805955286179
C        -1.89911122128789    1.13834796620206    1.89980384208794
C        -3.16763198934518    1.68584114950870    1.99133383694923
C        -4.19761353769319    1.10147692525207    1.26455502004418
C        -3.91653755154788   -0.00707210730913    0.48492892356150
H        -4.70821085236726   -0.47066448659064   -0.08333302998999
H        -3.34155913635760    2.55101520609211    2.61597424880948
H        -1.05423194815659    1.55899853959382    2.42543447092257
Ir        0.42150000000001   -0.81649999999998    0.91330000000003
H         0.87259999999999   -2.23029999999998    1.54050000000000
B         0.50591879255327    0.41247725953161   -0.79797291872750
O         0.17840200165815   -0.04088391926936   -2.06856162097708
C         0.00645760330951    1.09427770445612   -2.94480251522630
C         0.48366299571131    0.74666172387840   -4.35112043806116
H         1.50329080152013    0.37152854711575   -4.33085134419516
H         0.43705207021124    1.62179548652371   -4.99980815581708
H        -0.15406150987470   -0.03054168091980   -4.77079769486881
C        -1.49888104839163    1.39455878259697   -2.96554526244182
H        -1.74152921065879    2.20783864952371   -3.64787450596702
H        -2.02844359845145    0.49708962942277   -3.28508812039183
H        -1.84388496978601    1.64802908342569   -1.96291831253868
C         0.82983494442268    2.20371735692282   -2.21309325041006
O         0.75637468780017    1.77073631494861   -0.83650686218575
C         2.31276756389962    2.19006604923204   -2.60146180388248
H         2.71928737016912    1.19146840163168   -2.45357231787459
H         2.46441304628705    2.51319846826871   -3.63061875100060
H         2.85481349635960    2.86428275261486   -1.93922311769291
C         0.27594924124014    3.61989852435778   -2.33669412309291
H        -0.72746309775506    3.68730038301818   -1.92445044353394
H         0.91453565807318    4.30447858041097   -1.77982194636062
H         0.25713738585364    3.93475311307765   -3.38021031059172
B         1.56968086430866    0.62235448621147    1.84687024690960
O         2.93174997939748    0.58197502093585    2.11337141736052
C         3.36127771904944    1.90430638242689    2.49790887577653
C         4.53009737485602    1.83733227898924    3.47046342679292
H         4.27630551955809    1.21723178047846    4.32282998979334
H         5.39039981599266    1.40380588505301    2.96359989364234
H         4.80675815185155    2.82899184335662    3.82212466167542
C         3.79656705987255    2.58497624333199    1.19717485027233
H         4.19800785582199    3.58028495154345    1.38023102587658
H         4.56126935826212    1.97016884350911    0.72431554727676
H         2.94871927400200    2.63289947987271    0.51535807478191
C         2.04995755754195    2.50831103569481    3.08678014572859
O         1.03915147265871    1.80861454598011    2.33298403811336
C         1.88921552133384    4.01001159267824    2.88710473089299
H         1.86491395132483    4.25349005699151    1.82869231537368
H         0.95203354307125    4.33840550649683    3.33439804735993
H         2.71007380968610    4.54581334454555    3.36331942547043
C         1.83367941275117    2.13894432392126    4.55922958385053
H         1.94267102299957    1.06328136276405    4.69571053658471
H         2.53361113476262    2.66105327036510    5.20905996899959
H         0.81865777233670    2.41451458039915    4.84626930846034
B         2.27820000000002   -1.33090000000007    0.17410000000009
O         2.90115045483249   -2.56281736866684    0.37080863182995
C         4.26552067897936   -2.48572743894815   -0.10149955824619
C         5.12918039669768   -2.05484760593388    1.08212368747977
H         4.75463933560589   -1.09661573125512    1.43809683106422
H         4.99490389347273   -2.78694325802093    1.87568964462162
H         6.18773235564335   -1.98939080402359    0.83524354350196
C         4.72189188163759   -3.84922317091685   -0.60098457491727
H         4.75029423275376   -4.54558944520237    0.23641872954226
H         5.72071383344241   -3.77748783665264   -1.03094445280977
H         4.03520878855224   -4.24000423468067   -1.34650314439207
C         4.16130344914935   -1.35535593270269   -1.17041435491921
O         3.07107963794637   -0.55993027971716   -0.66335916105043
C         5.40568260881906   -0.48712887624377   -1.32424982381011
H         6.26235548281223   -1.09227584533830   -1.62011946728832
H         5.22819828777639    0.26638265208146   -2.09025512686131
H         5.63459542438161    0.02501312900870   -0.39383771811501
C         3.72156827152683   -1.89523666987903   -2.53616862717466
H         2.83144671782770   -2.51282839141705   -2.42335579318303
H         3.46251301617767   -1.05389144085256   -3.17717030771075
H         4.51159831456888   -2.47304329702792   -3.01312820416685
H        -3.38310854371004   -3.99476783855779   -2.57638817893354
H        -5.20142680924150    1.50343863606372    1.30417475988990
C         0.23589999999949   -1.68139999999951    2.96029999999985
O        -0.76969523423358   -2.10807276995985    3.76286663515222
C         1.41869450696234   -1.74072185072783    3.73346030052442
C        -0.27772327021259   -2.39663441825106    4.99531053097239
C         1.05929721865137   -2.17051194111259    5.04087811177097
C         2.87891946498663   -1.91231536535013    3.53163490792695
H        -0.93752686910151   -2.77828251591158    5.74824500473464
H         1.75060080947352   -2.32306246531764    5.84847514042411
O         3.32277192989764   -2.95813054744273    3.11007833434509
O         3.66073276076737   -1.00008312404040    4.13557728110756
C         5.08612527377202   -1.15568785974727    4.13850221874957
H         5.52108854857580   -0.65761220391075    3.27259589005520
H         5.38223796031906   -2.20316695732643    4.11693443799827
H         5.45743724298303   -0.66467151884511    5.03768928082165
99
 energy: -148.623182404907 gnorm: 0.054392296633 xtb: 6.4.1 (1a32961)
N        -0.96386821391592   -2.10987212457843   -0.24421362144740
C        -2.23538575413602   -1.69600204390552   -0.35517079078923
C        -3.13306444877291   -2.36638758509350   -1.19236806340906
C        -2.70889479833537   -3.46638757563751   -1.90829108379734
C        -1.39075732181730   -3.88436980830253   -1.77417847213766
C        -0.56321229582845   -3.17143506996148   -0.93278670131035
H         0.46976479078327   -3.45316359664667   -0.78865567778776
H        -1.01730577198141   -4.74159191924364   -2.30885164262321
H        -4.15186046723138   -2.03350280508919   -1.29079619999370
C        -2.60296722926772   -0.52239905116262    0.44251637128081
N        -1.61438318678605    0.06455312234798    1.14179272444635
C        -1.89683475375559    1.12341169322249    1.89107695794789
C        -3.16206031021464    1.66862988065682    1.99205462616517
C        -4.19212640906940    1.08316530325087    1.26933324562801
C        -3.90761960822926   -0.02009005136930    0.49112538808755
H        -4.69822198137045   -0.48667537056320   -0.07049593265180
H        -3.33617853686926    2.52816273148547    2.61809939993525
H        -1.05692989401802    1.55001947932674    2.41630641792846
Ir        0.42150000000003   -0.81649999999996    0.91330000000007
H         0.87259999999998   -2.23029999999997    1.54049999999999
B         0.49920721522212    0.41374190489390   -0.78074501506848
O         0.15759675541131   -0.03733958201795   -2.04544592332038
C        -0.00214017153609    1.08723572356615   -2.92916341338643
C         0.47527178717404    0.74018451670057   -4.33589112836233
H         1.49158602857504    0.36407484971079   -4.31965019373910
H         0.42407168992461    1.61900314031170   -4.97273772534970
H        -0.16544449752279   -0.03182071053090   -4.75241446019810
C        -1.50639585158412    1.39316921658468   -2.96154250092583
H        -1.73533637424949    2.20309524107877   -3.64625666771971
H        -2.03417909739176    0.49753099607360   -3.28050675349661
H        -1.84829584369626    1.64657506740083   -1.96058200601915
C         0.81694319541209    2.19816356212949   -2.20195610857038
O         0.75893087492376    1.76371143069152   -0.83145670611776
C         2.29652322110742    2.19314571255197   -2.60323246036296
H         2.70086594004783    1.19657343116896   -2.45032760105570
H         2.43404804859976    2.51182013491093   -3.63192765577352
H         2.83752054213657    2.87040418203379   -1.94766289563054
C         0.26009222983418    3.61320769556358   -2.32998753318646
H        -0.73848130814461    3.68404106151433   -1.91369760369534
H         0.90333513055090    4.29480673087620   -1.78100546317471
H         0.24159211411062    3.91379332601183   -3.37360116276429
B         1.58069177903917    0.63071509428194    1.85172714179706
O         2.93818596994546    0.60566902902147    2.09044277218787
C         3.36015266663992    1.92237475492324    2.48787676695319
C         4.52873779657152    1.87493401272920    3.46238393867380
H         4.28274215923147    1.25870558863311    4.31509709476337
H         5.39356471848985    1.45685607266863    2.95649058524599
H         4.77838029374562    2.87580050480314    3.79831846425573
C         3.79236573703788    2.61302072163450    1.19158829249190
H         4.19225409257077    3.60417753596011    1.37546707315379
H         4.55444871344775    1.99686112633163    0.72173497515780
H         2.94265105987235    2.64868560702826    0.51516242508953
C         2.04844483833711    2.51403503496777    3.07927849792776
O         1.04120273403286    1.79867231527508    2.34448526193172
C         1.88234545585228    4.01528839701788    2.88318169042144
H         1.85089477303956    4.25767799980254    1.82762118825232
H         0.95037980583113    4.33706705993908    3.33764074891727
H         2.70643299974292    4.54101146258108    3.35569316282405
C         1.84770993853886    2.14728107354690    4.55565073259626
H         1.96675478742858    1.07353792120828    4.68256348490985
H         2.54655073216534    2.67550826835232    5.19508029707442
H         0.83367632095533    2.41241010216338    4.84568134878602
B         2.27820000000003   -1.33090000000015    0.17410000000019
O         2.90989379928553   -2.54674800528962    0.36749913369680
C         4.26066106895690   -2.47979125847292   -0.12645067363377
C         5.14246340470051   -2.04992996666105    1.04222392385602
H         4.76750124654800   -1.09339207915501    1.39558172369206
H         5.01756613460517   -2.78057085538632    1.83283170147603
H         6.19054504268073   -1.98716689272222    0.77223678528969
C         4.71292126730211   -3.84505114387498   -0.62691894473170
H         4.74194126709718   -4.52659830731778    0.21833365550933
H         5.70882064623501   -3.76730274091223   -1.05191371859663
H         4.02842174310453   -4.24520742114105   -1.36495114434289
C         4.15019912693278   -1.34919823418522   -1.18768837917551
O         3.05434992172072   -0.56699668795218   -0.67711482965543
C         5.39488679155518   -0.48069834211753   -1.33960947417244
H         6.24347767310230   -1.09244893012095   -1.63018938686550
H         5.21776031353250    0.26749061199870   -2.10582044112277
H         5.62096962675759    0.03201600493880   -0.41215285754648
C         3.71876996320740   -1.88843326603320   -2.55545488992386
H         2.83253682628067   -2.50498147584977   -2.43367232345265
H         3.45918601766669   -1.05137127033759   -3.19696331099978
H         4.51459768963103   -2.46187442655933   -3.01863681270783
H        -3.38829665754765   -3.99222903644365   -2.55988074523769
H        -5.19407966237255    1.48059286741796    1.31364446129627
C         0.23589999999894   -1.68139999999899    2.96029999999970
O        -0.80686050242174   -2.07758915231546    3.73195597158030
C         1.39259441094245   -1.75787749441275    3.76505424902458
C        -0.35695766737938   -2.36791970841094    4.98150667653132
C         0.98367561314817   -2.17420787209506    5.06225322961549
C         2.85457785027011   -1.93521992206117    3.56108974444808
H        -1.04981313932819   -2.72701353164221    5.71561457134045
H         1.64750191810781   -2.33475508130630    5.88973079771399
O         3.30151506043761   -2.96756893543975    3.11090041482875
O         3.62170706624076   -1.01919495334477    4.16091348710541
C         5.04436459436556   -1.19116667469403    4.17105373639462
H         5.48269694782761   -0.70285337610964    3.30119096642261
H         5.31602496372701   -2.24608192050794    4.15624338526034
H         5.41127707973482   -0.70977286220313    5.07597333471743
99
 energy: -148.629827093315 gnorm: 0.051126189603 xtb: 6.4.1 (1a32961)
N        -0.95882676729638   -2.11137123088254   -0.24667995011939
C        -2.23060321687440   -1.69854521133396   -0.35196940085463
C        -3.13400543445118   -2.36882174528585   -1.18361196996196
C        -2.71524884484967   -3.46905042673706   -1.90068819265825
C        -1.39542809740690   -3.88726346045405   -1.77229911057126
C        -0.56419639386410   -3.17290435520260   -0.93524202165075
H         0.46819038381876   -3.45929746789205   -0.79524695940752
H        -1.02579059826728   -4.74478763929763   -2.30715112952197
H        -4.15277555066221   -2.03508277204480   -1.27570568596315
C        -2.59507395972617   -0.52966889989723    0.44542279561782
N        -1.60550937174464    0.05970256760173    1.14036414712930
C        -1.89095017916843    1.11597316205946    1.88920912850694
C        -3.15767544589674    1.65611155795324    1.99816944559195
C        -4.18987244950332    1.06628896878977    1.27933601411731
C        -3.90241609646218   -0.03386592122210    0.49961736228647
H        -4.69229834025604   -0.50544367437879   -0.05815850329299
H        -3.33272050807124    2.51174163227729    2.62731325329185
H        -1.05388366869991    1.54831088462568    2.41436041220842
Ir        0.42150000000004   -0.81649999999993    0.91330000000011
H         0.87259999999997   -2.23029999999995    1.54049999999999
B         0.49503370076035    0.41685707657641   -0.76646061271166
O         0.13576623460158   -0.03727396961827   -2.02503851442788
C        -0.01548475207430    1.08026638001126   -2.91193202671689
C         0.46368646034185    0.73073933954373   -4.31833816733026
H         1.47894819627580    0.35291422429221   -4.30392994114675
H         0.41191244043071    1.61299169465987   -4.94935153644829
H        -0.18009809317534   -0.03821478231581   -4.73475032439102
C        -1.51915877739864    1.39266383734652   -2.95506592970295
H        -1.73662266008469    2.20149032104296   -3.64350717531699
H        -2.04681814600348    0.49791282421768   -3.27534935188945
H        -1.86385799749422    1.64893441609713   -1.95633490879163
C         0.80371623818632    2.19395675789373   -2.18972422950002
O         0.76054592750105    1.76253191459616   -0.82240515417568
C         2.28036960497235    2.19615771281404   -2.60490518753249
H         2.68833475668542    1.20196360056943   -2.44836838458159
H         2.40355160565018    2.50952624859546   -3.63628921924271
H         2.82190439302524    2.88043325563506   -1.95776882090121
C         0.24154221795930    3.60768316251977   -2.32033680277242
H        -0.75424741297790    3.68044668992147   -1.89863825577770
H         0.88907772794464    4.29185692569417   -1.78032519805919
H         0.21809208009091    3.89713908002574   -3.36638492931702
B         1.59134514960310    0.63602702544029    1.85161383430854
O         2.94730336879359    0.62444421897797    2.07099307643563
C         3.35914100528017    1.94053059840905    2.47520076252668
C         4.52984240778551    1.90917695127155    3.45039374140318
H         4.29579027254347    1.29433760392877    4.30722403700177
H         5.40327631637659    1.50597791826085    2.94745437432300
H         4.75416733941990    2.92031790927537    3.77630013489817
C         3.78646342414682    2.64241274873308    1.18156256852572
H         4.18079940065844    3.63408685237277    1.36937303302683
H         4.55150535738482    2.03121286250426    0.71021790683252
H         2.93513981662108    2.67353868519327    0.50779099678501
C         2.04531478063680    2.51922186287676    3.07366340396129
O         1.04114301199913    1.78980034120984    2.35341849360321
C         1.86979891587173    4.02048562311820    2.87833453009061
H         1.82925231547747    4.26441565951132    1.82369310989960
H         0.94206717916678    4.33866290136238    3.34278397650888
H         2.69835790482425    4.54325112062888    3.34498037432146
C         1.86179961131688    2.15519660038163    4.55441373740903
H         1.99372580341289    1.08279534742795    4.67798307005646
H         2.56045263792399    2.69337998501911    5.18455441753055
H         0.84700952893570    2.40894859985839    4.85024653876013
B         2.27820000000005   -1.33090000000024    0.17410000000029
O         2.91507510919443   -2.53759864329324    0.36678926546362
C         4.25352004550955   -2.47317992808734   -0.15033359506870
C         5.15740775565080   -2.04536164251291    1.00449520442509
H         4.78965006998665   -1.08675572205219    1.35836191946538
H         5.04378182288529   -2.77417308404741    1.79783689827482
H         6.19880667428792   -1.98501683293921    0.70943783705962
C         4.70117913601781   -3.84069622684991   -0.65376486333079
H         4.73302164939258   -4.51688387429774    0.19508811948959
H         5.69523941353523   -3.76089034375501   -1.08124509465480
H         4.01538953662503   -4.24488400259375   -1.38765333346818
C         4.13461232990834   -1.34102096505213   -1.20841114399254
O         3.03473522705042   -0.56813878784696   -0.69586956238928
C         5.37862128996662   -0.46923533299074   -1.36051764115970
H         6.22493145582692   -1.08604578457521   -1.64548004268238
H         5.20363562245060    0.27412096791848   -2.13108707478522
H         5.60274945566429    0.04738915167030   -0.43522741744912
C         3.71133652891264   -1.88201252599864   -2.57857454410725
H         2.82741065439726   -2.50085621242346   -2.45734430950145
H         3.45373693864243   -1.04722984374943   -3.22274208475802
H         4.51385962480549   -2.45247066202397   -3.03214141847259
H        -3.39793085691452   -3.99520997111741   -2.54765914715163
H        -5.19317104062480    1.45809915106405    1.32867349610078
C         0.23589999999831   -1.68139999999840    2.96029999999953
O        -0.84880028045671   -2.03851244486735    3.69626829837079
C         1.36008548365388   -1.78148658994654    3.79860833891059
C        -0.44833186021888   -2.33032636602520    4.96427904745234
C         0.89622591999237   -2.17542527461094    5.08621751275290
C         2.82097285173412   -1.95819308650625    3.59105776954556
H        -1.18132962569272   -2.66020251582271    5.67605582296332
H         1.52564923877099   -2.34532797236675    5.93973516525917
O         3.27356192121852   -2.97633723462852    3.11404782202578
O         3.57387270700769   -1.04157422414465    4.19640801821558
C         4.99509606965932   -1.22709014416885    4.21478054811295
H         5.43972933232303   -0.74423910647668    3.34578402594908
H         5.24507442292370   -2.28856029808656    4.19926439748824
H         5.36080831795994   -0.75728673610037    5.12544983327648
99
 energy: -148.635564804210 gnorm: 0.047805548991 xtb: 6.4.1 (1a32961)
N        -0.95317489952270   -2.11460621332422   -0.24957700905104
C        -2.22703675344832   -1.70292562089971   -0.34937635167104
C        -3.13529805110120   -2.37358362108205   -1.17652036442245
C        -2.72055367827887   -3.47459597389554   -1.89498600279179
C        -1.39911244474972   -3.89314333128056   -1.77210239294593
C        -0.56227066438610   -3.17786082523686   -0.93959142688279
H         0.47095271629625   -3.46583955094434   -0.80616994591388
H        -1.03284755928099   -4.75190988254482   -2.30816986364841
H        -4.15472410730302   -2.03840837064106   -1.26268972591136
C        -2.58947591103768   -0.53634343328979    0.44959777325298
N        -1.59751115004663    0.05505793928756    1.14257572416583
C        -1.88499710714997    1.11128723597912    1.89310696383746
C        -3.15447316285549    1.64520711374793    2.00776511303386
C        -4.18875646547299    1.05100586158897    1.29309191000505
C        -3.89916454626247   -0.04626395519598    0.50999728741713
H        -4.68875220256032   -0.52319796021130   -0.04469223595515
H        -3.33030859673110    2.49910285278136    2.63946603501216
H        -1.04844135646153    1.54987487192334    2.41470764965675
Ir        0.42150000000006   -0.81649999999991    0.91330000000015
H         0.87259999999995   -2.23029999999993    1.54049999999998
B         0.48538423981309    0.42290032567342   -0.75353238552032
O         0.11321534299985   -0.03566634303596   -2.00729503859607
C        -0.03266725203187    1.07649438843676   -2.89643918966089
C         0.44942168176436    0.72066715306530   -4.30083690296309
H         1.46383238260438    0.33918927098957   -4.28399440364681
H         0.40171966105904    1.60302999270280   -4.93300126840515
H        -0.19673876821775   -0.04705597893895   -4.71742874098190
C        -1.53572264314383    1.39373887448119   -2.94811636272672
H        -1.74505608736443    2.20205574844940   -3.64037507423620
H        -2.06443368915613    0.49962278351745   -3.26999614758985
H        -1.88668881608840    1.65422754167945   -1.95217560971907
C         0.78999694374832    2.19299709986031   -2.17949860458411
O         0.75908236937055    1.76592411571096   -0.81305115117043
C         2.26365789353037    2.20042648279461   -2.60737825883655
H         2.67851737347569    1.20929924858839   -2.44716229045239
H         2.37482859772781    2.50703147766049   -3.64262214115290
H         2.80691270453063    2.89356912727190   -1.97022590651988
C         0.22161211298463    3.60476798089797   -2.31025865637349
H        -0.77146807635125    3.67700403641671   -1.88064225044575
H         0.87226517016045    4.29422467739810   -1.77948973315882
H         0.18817500435932    3.88782651441869   -3.35849933993041
B         1.59871820969421    0.63616529190953    1.85366484741763
O         2.95726517836338    0.63955891365813    2.05610035981752
C         3.35931545755586    1.95828882138345    2.46214013016353
C         4.53341889603569    1.93858982353503    3.43526619124999
H         4.31264527508957    1.32170506760235    4.29573277611965