105
 energy: -150.768528797954 gnorm: 0.076137082157 xtb: 6.4.1 (1a32961)
N        -0.96510000000000   -2.11530000000000   -0.24090000000000
C        -2.24700000000001   -1.69840000000000   -0.36219999999999
C        -3.14040000000001   -2.36820000000001   -1.21200000000000
C        -2.70220000000000   -3.47560000000000   -1.93050000000000
C        -1.37780000000000   -3.89880000000000   -1.78760000000000
C        -0.54290000000000   -3.18670000000000   -0.93510000000000
H         0.49810000000000   -3.45630000000000   -0.78940000000000
H        -0.99570000000000   -4.76030000000000   -2.32770000000000
H        -4.16500000000000   -2.02890000000000   -1.31830000000000
C        -2.62130000000000   -0.50950000000000    0.44100000000000
N        -1.62600000000000    0.07330000000000    1.16020000000000
C        -1.89680000000000    1.15240000000000    1.91690000000000
C        -3.17230000000001    1.70330000000000    1.99650000000000
C        -4.20510000000000    1.11740000000000    1.26270000000000
C        -3.92610000000000    0.00250000000000    0.47820000000000
H        -4.71960000000000   -0.46420000000000   -0.09520000000000
H        -3.34630000000000    2.57510000000000    2.62070000000000
H        -1.04450000000000    1.57420000000000    2.43690000000000
Ir        0.42150000000000   -0.81650000000000    0.91330000000000
H         0.87260000000000   -2.23030000000000    1.54050000000000
B         0.50670000000000    0.41560000000000   -0.81540000000000
O         0.19500000000000   -0.04700000000000   -2.09150000000000
C         0.00650000000000    1.10040000000000   -2.95430000000000
C         0.49020000000000    0.74740000000000   -4.35780000000000
H         1.51610000000000    0.37380000000000   -4.33700000000000
H         0.44730000000000    1.62240000000000   -5.01670000000000
H        -0.14740000000000   -0.03390000000000   -4.78430000000000
C        -1.50120000000000    1.39560000000000   -2.96670000000000
H        -1.75370000000000    2.21460000000000   -3.64850000000000
H        -2.03200000000000    0.49450000000000   -3.28930000000000
H        -1.85170000000000    1.65210000000000   -1.96220000000000
C         0.84230000000000    2.20670000000000   -2.22040000000000
O         0.75200000000000    1.78260000000000   -0.83690000000000
C         2.32930000000001    2.18620000000000   -2.59900000000000
H         2.74130000000000    1.18500000000000   -2.45750000000000
H         2.48870000000000    2.51300000000000   -3.63180000000000
H         2.87200000000000    2.86270000000000   -1.93200000000000
C         0.28440000000000    3.62290000000000   -2.33660000000000
H        -0.72650000000000    3.69040000000000   -1.92910000000000
H         0.92130000000000    4.31480000000000   -1.77610000000000
H         0.26430000000000    3.94810000000000   -3.38320000000000
B         1.56300000000001    0.60960000000000    1.84840000000000
O         2.92780000000000    0.55230000000000    2.15020000000000
C         3.36330000000000    1.88660000000000    2.50260000000000
C         4.53140000000000    1.78590000000000    3.47740000000000
H         4.27910000000000    1.16090000000000    4.33690000000000
H         5.39390000000000    1.33790000000000    2.97340000000000
H         4.82390000000000    2.77870000000000    3.83820000000000
C         3.79700000000000    2.56850000000000    1.19670000000000
H         4.20020000000000    3.57090000000000    1.37680000000000
H         4.56740000000000    1.95560000000000    0.72110000000000
H         2.95240000000000    2.63260000000000    0.50540000000000
C         2.05040000000000    2.50090000000000    3.09320000000000
O         1.03750000000000    1.81620000000000    2.31910000000000
C         1.89100000000000    4.00450000000000    2.88650000000000
H         1.87290000000000    4.25440000000000    1.82410000000000
H         0.94940000000000    4.34260000000000    3.33170000000000
H         2.71080000000000    4.55150000000000    3.36630000000000
C         1.82470000000000    2.13200000000000    4.56520000000000
H         1.92610000000000    1.05330000000000    4.71320000000000
H         2.52610000000000    2.65280000000000    5.22540000000000
H         0.80630000000000    2.41580000000000    4.84900000000000
B         2.27820000000000   -1.33090000000000    0.17410000000000
O         2.89460000000000   -2.57740000000000    0.38450000000000
C         4.26930000000000   -2.48200000000000   -0.07210000000000
C         5.10900000000000   -2.05380000000000    1.14010000000001
H         4.76350000000000   -1.08740000000000    1.51750000000000
H         4.98050000000000   -2.79470000000000    1.93590000000000
H         6.17420000000000   -1.99290000000000    0.89300000000000
C         4.71950000000000   -3.84660000000000   -0.58470000000000
H         4.75280000000000   -4.56130000000000    0.24420000000000
H         5.72330000000000   -3.78370000000000   -1.02010000000000
H         4.03500000000000   -4.23600000000000   -1.34170000000000
C         4.16440000000000   -1.36220000000000   -1.16300000000000
O         3.08520000000000   -0.55030000000000   -0.65400000000000
C         5.40720000000000   -0.48870000000000   -1.31549999999999
H         6.27320000000000   -1.09010000000000   -1.61530000000000
H         5.23300000000000    0.26930000000000   -2.08590000000000
H         5.64270000000000    0.02650000000000   -0.38240000000000
C         3.71800000000000   -1.89830000000000   -2.53110000000000
H         2.82530000000000   -2.52160000000000   -2.42740000000000
H         3.46090000000000   -1.05250000000000   -3.17550000000000
H         4.50570000000000   -2.48290000000000   -3.01790000000000
H        -3.38500000000000   -4.00130000000000   -2.59310000000000
H        -5.21400000000000    1.52080000000000    1.29960000000000
C         0.23590000000000   -1.68140000000000    2.96030000000000
C        -1.00388465209872   -2.13273198521734    3.40383377000338
C         1.30956270864766   -1.73759698996173    3.86131904657096
C        -1.12178556370034   -2.57958308379860    4.72557799942705
H        -1.86272409944704   -2.17447585366977    2.74493283026316
N         1.25285289427076   -2.18286461775928    5.11351964458337
H         2.29729711409102   -1.43238599767293    3.53623351772501
C         0.05112546883165   -2.60640905660385    5.50658866501395
C        -2.15977856521855   -3.15127961729318    5.52749443158910
N        -0.24119779843033   -3.17459170219576    6.70800531584763
C        -1.57089847084070   -3.50292230885969    6.71542503331924
C        -3.60837263932388   -3.27808093659969    5.18008606092284
H         0.42305044834682   -3.34590071799552    7.44451980942781
H        -2.01268414175538   -3.97813936295986    7.57406162603154
C        -4.45240328255384   -2.29936505388288    5.99164626192064
H        -3.95105151493053   -4.29907368558209    5.37733894285039
H        -3.73883160991895   -3.07954997873062    4.11290084830420
H        -4.37041164859267   -2.52171674698614    7.05613581285819
H        -5.50240288338243   -2.36202971477088    5.70322477847236
H        -4.10658911342192   -1.27771965014853    5.83117065481292
105
 energy: -150.774969293574 gnorm: 0.045880368915 xtb: 6.4.1 (1a32961)
N        -0.96148231107977   -2.09986440078815   -0.25026401143399
C        -2.24025794946398   -1.69005978623755   -0.36357354213085
C        -3.13485750553581   -2.36179316980370   -1.20592207441699
C        -2.70445577726614   -3.46304123804310   -1.92157392826938
C        -1.38414928753725   -3.88171231399191   -1.78222698353897
C        -0.55401465572958   -3.16743823167963   -0.94043061952617
H         0.47968100429459   -3.44762349140049   -0.79082557314783
H        -1.00775476540385   -4.74180349255234   -2.31741883133036
H        -4.15535072294854   -2.02626044831322   -1.31021074111488
C        -2.61149280315301   -0.51301053205715    0.43540918615838
N        -1.61848809465276    0.06698009819339    1.14709326918188
C        -1.89694154925942    1.13913371256727    1.89301992793496
C        -3.16350739413897    1.68914984867525    1.98002288382974
C        -4.19548487177981    1.10455643199486    1.25405111257226
C        -3.91435639285047   -0.00215464356828    0.47433768119198
H        -4.70598129316587   -0.46602879433510   -0.09394666111875
H        -3.33861050916632    2.55170808682204    2.60769208414382
H        -1.05407792334703    1.55666307854991    2.42297346628964
Ir        0.42150000000000   -0.81650000000000    0.91330000000000
H         0.87260000000000   -2.23030000000000    1.54050000000000
B         0.49141182377593    0.42463607229147   -0.78990119848220
O         0.17561610115668   -0.03463963276350   -2.06241093257799
C         0.01089688705767    1.09682785587404   -2.94349392354381
C         0.48996041866664    0.74704681096203   -4.34836928294328
H         1.50888134720783    0.37022542922521   -4.32686262304982
H         0.44522310672750    1.62246914650544   -4.99690390332313
H        -0.14885999225072   -0.02894285392966   -4.76867635307106
C        -1.49323372860223    1.39930612345777   -2.97014053698193
H        -1.73155122134767    2.21221295670217   -3.65441974543612
H        -2.02323441585497    0.50211331697438   -3.28993487960096
H        -1.83988209930184    1.65417020198236   -1.96851501526486
C         0.83237391660044    2.20699132149461   -2.21259807187001
O         0.75557669943049    1.78070148400439   -0.83536652026459
C         2.31484890593858    2.19067649049420   -2.60014959851325
H         2.71898248506467    1.19156307854497   -2.44985193410654
H         2.46650701229544    2.51187258386009   -3.62999370461316
H         2.85708638065817    2.86539882737315   -1.93871381539366
C         0.28087872541527    3.62306195629165   -2.34001916329522
H        -0.72240406773398    3.69204107715319   -1.92770313348176
H         0.92050145316933    4.30668910211250   -1.78329839505950
H         0.26331590703160    3.93534023728363   -3.38431373843859
B         1.56392439637001    0.61617360902744    1.85733513731002
O         2.92524687683215    0.56590172761512    2.13463238613160
C         3.36323605152304    1.88678068118757    2.50920131475423
C         4.53264822292535    1.78859774094021    3.48028786782167
H         4.27984407389041    1.15918648093389    4.32956683707860
H         5.38779044957385    1.34466583200824    2.97238526577671
H         4.81506639411617    2.77892483272269    3.83680244295535
C         3.79911090480973    2.57452323204768    1.21091676732634
H         4.20053745454151    3.57013745807302    1.39523656705064
H         4.56312828277723    1.96290017330154    0.73399599411100
H         2.95097841670380    2.62685368256570    0.52950284814501
C         2.05324821063484    2.50472834386898    3.08971878500225
O         1.04041625932323    1.80910209747634    2.33647165758565
C         1.89414815276554    4.00694448784507    2.88896528563072
H         1.86873732891876    4.25048758120226    1.83061838900125
H         0.95671597010727    4.33616494179016    3.33558748590497
H         2.71475260685288    4.54303186479622    3.36511086665159
C         1.83236070140375    2.14019166044461    4.56195523691679
H         1.93503672420578    1.06444451847500    4.70097320537396
H         2.53334648658947    2.66202726045225    5.21087277450893
H         0.81767910239273    2.41869627710475    4.84626993681017
B         2.27820000000000   -1.33090000000000    0.17410000000000
O         2.90066954112361   -2.56199451120969    0.39009920319589
C         4.26540341346991   -2.48361816238404   -0.07756316318090
C         5.10983147139177   -2.05892117046067    1.12827301209778
H         4.75353479999862   -1.09895975787895    1.49947606708374
H         4.97780706699619   -2.79360424494006    1.92171919214712
H         6.16763771791780   -1.99890578680241    0.87642012732323
C         4.72006630903763   -3.84576898593467   -0.58751942089284
H         4.74950385300625   -4.54985878523124    0.24275033661799
H         5.71790508270761   -3.77412921305092   -1.01956427296566
H         4.03437034608721   -4.23327457329683   -1.33627214556563
C         4.16636435188536   -1.36061512032259   -1.15773762963971
O         3.07411134721029   -0.56379914867133   -0.66234274731961
C         5.40965023691250   -0.49239686493613   -1.31543763053915
H         6.26580720459593   -1.09832707147481   -1.61094509853232
H         5.23129474554099    0.25868596363701   -2.08381158556137
H         5.63711426132204    0.02205077050815   -0.38629063915667
C         3.72950492967143   -1.89982339501490   -2.52592424427978
H         2.83734553230235   -2.51509918049403   -2.41714725794838
H         3.47222793241799   -1.05828629419808   -3.16779595049403
H         4.51956628505814   -2.47707379998196   -3.00342900351691
H        -3.38369951810617   -3.98790849397551   -2.57960499611637
H        -5.19966065237242    1.50529404293049    1.29531307052563
C         0.23590000000000   -1.68140000000000    2.96029999999999
C        -1.00334507369664   -2.13210155849343    3.40266252650405
C         1.31062752954942   -1.73468120419432    3.86796270901180
C        -1.12306851736919   -2.57614886400689    4.72330878192454
H        -1.86092773530144   -2.17570915142463    2.74307599895294
N         1.25183240971220   -2.17578958437197    5.11572962511508
H         2.29672359107359   -1.42824076510534    3.54449606283180
C         0.05371527094393   -2.59971418730738    5.50826674708841
C        -2.15846340810470   -3.14856398065666    5.52745473947613
N        -0.24132310676705   -3.16606509741105    6.70843261919172
C        -1.57109328405470   -3.49593707169059    6.71309921093165
C        -3.60681209627677   -3.27937505752760    5.17938807723431
H         0.42055768766097   -3.33581077402759    7.44629030684003
H        -2.01231034819203   -3.96951646834911    7.57011312266991
C        -4.45529264765366   -2.29966031863248    5.99044415234632
H        -3.94762220365162   -4.29977247725984    5.37759090623270
H        -3.73718202414841   -3.08254019744025    4.11320271980465
H        -4.37404569492243   -2.52039569558590    7.05296421392566
H        -5.50279201820830   -2.36475960478827    5.70141567722264
H        -4.11185984939397   -1.27945007908518    5.82926995100880
105
 energy: -150.776626892603 gnorm: 0.035884848093 xtb: 6.4.1 (1a32961)
N        -0.95359773048849   -2.09153795681585   -0.25778614977416
C        -2.23074246390300   -1.68303751952784   -0.36622225672935
C        -3.13057896153828   -2.35404633148382   -1.20305845826951
C        -2.70850465995768   -3.45257105325877   -1.91934588211035
C        -1.38828138900642   -3.87143324285514   -1.78374495154660
C        -0.55834504922849   -3.15751205793105   -0.94686591135976
H         0.47414836009910   -3.44146017935397   -0.80528825067875
H        -1.01748585832036   -4.73100733679486   -2.31732150031795
H        -4.14991177321845   -2.01965095339587   -1.29910611896614
C        -2.59825153726807   -0.51464675401540    0.42820602921641
N        -1.60773926140058    0.06051045654327    1.14167314933166
C        -1.89258738410367    1.12773384643159    1.88217914790242
C        -3.15442479584233    1.67938263764780    1.97029162362424
C        -4.18707299047041    1.09521240995777    1.24479423948946
C        -3.90175554147924   -0.00542313010948    0.46588570220889
H        -4.69081578492915   -0.47134043382084   -0.09993619423635
H        -3.32993130904430    2.53838305702161    2.59721145635218
H        -1.05493446797609    1.55044778842052    2.41313962892769
Ir        0.42150000000000   -0.81650000000000    0.91330000000000
H         0.87260000000000   -2.23030000000000    1.54050000000000
B         0.49480356765976    0.43560608998141   -0.76747840781626
O         0.15603334770571   -0.02432338885759   -2.03261182010608
C         0.00637639964722    1.09452365374001   -2.92376212658957
C         0.49056883903115    0.73916821731613   -4.32587933952630
H         1.50572112440415    0.35848372633373   -4.30506886094603
H         0.44626520912437    1.61760225954730   -4.96480903736888
H        -0.15230835612494   -0.03067111089293   -4.74473892142772
C        -1.49600074555559    1.40667633235418   -2.97015144402993
H        -1.71568393332941    2.21580092673074   -3.66023632144620
H        -2.02545064056234    0.51189713126137   -3.29085497134880
H        -1.84538755912722    1.66517794430211   -1.97269245429929
C         0.82493172560499    2.20713270458380   -2.20000061712277
O         0.75953763807751    1.78576889507124   -0.82740555823984
C         2.30487832644901    2.19567419547617   -2.59781571563981
H         2.70615860668373    1.19819445426502   -2.44023406283942
H         2.44330881856052    2.50911282837988   -3.62872798833723
H         2.84710168703049    2.87515189316025   -1.94486625304291
C         0.27094756703752    3.62175961379739   -2.33706919277762
H        -0.72822650888886    3.69677247633748   -1.92132656796883
H         0.91576417585412    4.30423719969345   -1.79003063948608
H         0.25396746873737    3.91706931604189   -3.38286652080978
B         1.56661202054646    0.62342732419050    1.86233980866283
O         2.92376363388848    0.57718808732500    2.12128571679494
C         3.36224340816576    1.88800054938828    2.51128564548186
C         4.52952387478443    1.78756526783834    3.48552170451652
H         4.27935209140964    1.15222960408920    4.32824676299667
H         5.38272585115946    1.35160564224831    2.97316030394586
H         4.80171740210768    2.77706292630060    3.84174246644377
C         3.80325764867799    2.58737291565709    1.22112309351373
H         4.20126583165764    3.57895645605249    1.41406636632052
H         4.56650600050796    1.97854103134371    0.74406102141977
H         2.95382086882502    2.63449539379164    0.54402653437914
C         2.05430645444158    2.50415733677353    3.09165322562308
O         1.04248463156139    1.80221239845885    2.35202373858861
C         1.89664953251432    4.00635163327134    2.88902541102969
H         1.86323942915077    4.24821276903308    1.83267058552053
H         0.96428335566091    4.33192970544910    3.34207609770223
H         2.72107961782206    4.53370934406869    3.36027579412272
C         1.84414629265518    2.14833611421463    4.56839288595509
H         1.94991348302331    1.07422481013111    4.70284414612768
H         2.54752263128465    2.67446312098793    5.20581608270182
H         0.83138421050503    2.42355603947799    4.85398687172283
B         2.27820000000000   -1.33090000000000    0.17410000000001
O         2.90263643006624   -2.55011382232109    0.39863026753919
C         4.25817470399261   -2.48206543116306   -0.07793466610147
C         5.11323792664653   -2.06110532112086    1.12124503301498
H         4.75228328054752   -1.10388313893411    1.48939912308452
H         4.98158970737072   -2.79400551580269    1.91285496187219
H         6.16541079245183   -2.00245089261800    0.86053331104732
C         4.71168296658668   -3.84406640299497   -0.59061083187924
H         4.74346801248755   -4.54152410747596    0.24134453902645
H         5.70549570858975   -3.76339612963013   -1.02160575500323
H         4.02585653356961   -4.23323495292853   -1.33487950669792
C         4.16185016048681   -1.36106120210930   -1.15627837478380
O         3.06239621988492   -0.57334691487686   -0.67099622213260
C         5.40668313368276   -0.49455605893365   -1.30960417487368
H         6.25511729795509   -1.10794390028686   -1.59928509138433
H         5.22996132756675    0.24975491014959   -2.08101813049992
H         5.63059327578006    0.02215453775329   -0.38355817937011
C         3.73990406102522   -1.90403133807728   -2.52832887768848
H         2.84866159385054   -2.51646762608735   -2.41880323064565
H         3.48654123604275   -1.06433124675922   -3.17072806035590
H         4.53624738208678   -2.47712592669535   -2.99272673932451
H        -3.38938352487878   -3.97780410755397   -2.57093547622808
H        -5.18986036848321    1.49183656012168    1.28955021528981
C         0.23590000000001   -1.68140000000001    2.96029999999998
C        -1.00224242219137   -2.13249001962693    3.40196223321299
C         1.31073699047232   -1.72791507873496    3.87344039338493
C        -1.12488331353166   -2.57080938679264    4.72311591869815
H        -1.85835874361790   -2.18019947873225    2.74059173972554
N         1.24878120469867   -2.16296888311281    5.11934402389983
H         2.29530628610790   -1.41928798387448    3.54977439148786
C         0.05354361732874   -2.58836460458213    5.51257836685269
C        -2.15841051057936   -3.14310335131951    5.52904467979797
N        -0.24387891622301   -3.15097533910740    6.71287594724484
C        -1.57298558759996   -3.48446814989623    6.71523302787325
C        -3.60569998829579   -3.28074722487008    5.17827177882315
H         0.41592310637450   -3.31693162962595    7.45297227484191
H        -2.01387364172223   -3.95621319605844    7.57212933247580
C        -4.46006699773901   -2.30113644171485    5.98688709653849
H        -3.94300193435224   -4.30113787764229    5.37933024125656
H        -3.73564345971871   -3.08660344666591    4.11228552043679
H        -4.37933009533335   -2.52016540397429    7.04869824316390
H        -5.50548067228027   -2.37171312180841    5.69526064963384
H        -4.11947863470994   -1.28130875068174    5.82337029195934
105
 energy: -150.777216699960 gnorm: 0.035314594027 xtb: 6.4.1 (1a32961)
N        -0.94452167442177   -2.08819288010821   -0.26752408273525
C        -2.22261373990118   -1.67969408061333   -0.37043818371696
C        -3.12763075033173   -2.35081727575560   -1.20289358289801
C        -2.71137989643247   -3.44946491971846   -1.92077866603467
C        -1.38915153309246   -3.86821437914655   -1.79172664725813
C        -0.55509229536645   -3.15340571559528   -0.95965219672612
H         0.47743631278764   -3.44117770704788   -0.82350393140872
H        -1.02248475269240   -4.72852705335180   -2.32590879740357
H        -4.14692825006097   -2.01479106328529   -1.29241144469325
C        -2.58798485261597   -0.51473347592427    0.42353015867107
N        -1.59793565173548    0.05992995012493    1.13883341146476
C        -1.88576789392474    1.12725603619196    1.87706791530633
C        -3.14760923315696    1.67791678538184    1.96563640942954
C        -4.18097279822832    1.09213444814351    1.23971850504703
C        -3.89263092082799   -0.00625206596886    0.46036897210233
H        -4.67916854225350   -0.47293918777555   -0.10802762738629
H        -3.32426868162573    2.53531981089735    2.59327710537731
H        -1.05142513957296    1.55125228894365    2.41279570105491
Ir        0.42150000000000   -0.81650000000000    0.91330000000000
H         0.87260000000000   -2.23030000000000    1.54050000000000
B         0.48131051906677    0.45002308011796   -0.74857745427858
O         0.13457078788151   -0.01532944640465   -2.00943058396666
C        -0.00227937029880    1.09527859219660   -2.90714381785182
C         0.48917970704674    0.72958775569718   -4.30491563811841
H         1.50176101792238    0.34290546349888   -4.27764168723619
H         0.45229414015526    1.60767258894524   -4.94414406360706
H        -0.15681061670784   -0.03740641687069   -4.72373423778343
C        -1.50341285282659    1.41583211536382   -2.96970394608911
H        -1.70843729284806    2.22289262266726   -3.66609134030502
H        -2.03390872968882    0.52253589579539   -3.29207607839895
H        -1.86097795924039    1.68084578039407   -1.97702291333101
C         0.81724625843472    2.21015248080063   -2.18759420550266
O         0.76004153211312    1.79535184811912   -0.81594812519073
C         2.29574609166717    2.20008860118615   -2.59423937321439
H         2.69918059136653    1.20457216674776   -2.43035760660323
H         2.42531055769170    2.50551447053081   -3.62828709251816
H         2.83910668286027    2.88672452731016   -1.95001424517039
C         0.26197550203673    3.62449396821609   -2.33222337540836
H        -0.73504307380445    3.70339344462328   -1.91248398909518
H         0.91042011773883    4.31122758236585   -1.79504841269392
H         0.24042861552055    3.90753289656795   -3.38105846827476
B         1.56740218425179    0.62524629474800    1.86881835425796
O         2.92518879116210    0.58367417947952    2.10991861667669
C         3.36253367044891    1.88913667939979    2.51224945142796
C         4.52897558174161    1.78442410367497    3.48858678517358
H         4.28002150702015    1.14183820980744    4.32598495708483
H         5.38465970454989    1.35645434073484    2.97386599572638
H         4.79422219453215    2.77302356712454    3.85163383161456
C         3.80745973826758    2.60051837461289    1.22890396711417
H         4.20171220787086    3.59105949840656    1.43194349788380
H         4.57417242297140    1.99702188402866    0.75078050723211
H         2.95968480635156    2.64958175163995    0.55026196826231
C         2.05534901057896    2.50337429690304    3.09644438398525
O         1.04189899677498    1.79598779908223    2.36790450978880
C         1.89585810115459    4.00585978605026    2.89056101962753
H         1.85397331610947    4.24568267548103    1.83408279444122
H         0.96781454492447    4.33266388918703    3.35122988676302
H         2.72549784088639    4.53127716166432    3.35410294090623
C         1.85572747650684    2.15521257956989    4.57751187649811
H         1.96517106920432    1.08213675889590    4.71534565582752
H         2.56268394036921    2.68711441123403    5.20545640386654
H         0.84425350432941    2.42946765959701    4.86756033274471
B         2.27820000000000   -1.33090000000000    0.17410000000001
O         2.90399380180615   -2.54411242000214    0.40772030470644
C         4.25358782311274   -2.48157630640066   -0.07726653427148
C         5.11798779703937   -2.06217783818225    1.11682716440543
H         4.75869612289929   -1.10498591882132    1.48626418381335
H         4.98961390868498   -2.79540223992240    1.90835256838765
H         6.16766220730049   -2.00473797353950    0.84830665807339
C         4.70312023554806   -3.84542404760158   -0.59131959878738
H         4.73845803753072   -4.54124996459118    0.24155937546201
H         5.69467109518313   -3.76228421327235   -1.02604703528608
H         4.01435054726960   -4.23511079908452   -1.33238026531672
C         4.15809441954886   -1.36193757455308   -1.15706681751275
O         3.05356194880264   -0.57849240854250   -0.68058038157116
C         5.40325198850180   -0.49397407099828   -1.30527625388018
H         6.25126098477909   -1.11106112600702   -1.58733313876570
H         5.23091795601406    0.24662540626463   -2.08098900718333
H         5.62212541204089    0.02592269803756   -0.38002312282537
C         3.74883722325261   -1.90840564688524   -2.53260413947148
H         2.85800384541060   -2.52188419109308   -2.42869620539912
H         3.50088952781619   -1.07000537965589   -3.17859393236405
H         4.55148296440396   -2.48040597534663   -2.98637593744319
H        -3.39577107711880   -3.97437303323517   -2.56853272995464
H        -5.18431764294617    1.48630203358444    1.28527651798405
C         0.23590000000002   -1.68140000000001    2.96029999999996
C        -1.00133915235920   -2.13350137029511    3.40175732639154
C         1.30970071387561   -1.71968683969911    3.87661874908717
C        -1.12644183728453   -2.56513243380304    4.72471778348441
H        -1.85583590676334   -2.18712649693335    2.73828855576320
N         1.24509793926929   -2.14783780129306    5.12384942380925
H         2.29335325451339   -1.40897363008609    3.55233543216967
C         0.05110027149768   -2.57512479056898    5.51774874301145
C        -2.15932892775175   -3.13691357792424    5.53129301515482
N        -0.24782674087204   -3.13244285885239    6.71974443062429
C        -1.57580326814403   -3.47054827378974    6.72051602977549
C        -3.60519574938239   -3.28229544696352    5.17738448398750
H         0.41042596499458   -3.29280064776839    7.46253848467037
H        -2.01682580038274   -3.93970009811496    7.57869139126631
C        -4.46601762423315   -2.30360670797584    5.98147067141144
H        -3.93832335336500   -4.30334130540987    5.38148055836506
H        -3.73388675290328   -3.09187032101486    4.11073458883701
H        -4.38641436911104   -2.51967882458716    7.04384325555929
H        -5.51018532669224   -2.38008071697025    5.68716937904831
H        -4.12914724232452   -1.28305432905332    5.81542489698279
105
 energy: -150.777928152536 gnorm: 0.035612298910 xtb: 6.4.1 (1a32961)
N        -0.93147210002174   -2.08686711797752   -0.28135987835863
C        -2.21120345067473   -1.67723256094124   -0.37696027534500
C        -3.12246704589776   -2.34820151017397   -1.20476409023396
C        -2.71336239916678   -3.44681720242166   -1.92598054687480
C        -1.38829410818048   -3.86502341341148   -1.80726793966977
C        -0.54792857874609   -3.15031915928549   -0.98030468498565
H         0.48639314507351   -3.43967666615842   -0.85584694526804
H        -1.02647893893007   -4.72518363805455   -2.34527867224408
H        -4.14224963169875   -2.01011748247700   -1.28473928189221
C        -2.57388163183734   -0.51488786427520    0.41789429592945
N        -1.58468204967931    0.05694958671603    1.13977793126767
C        -1.87520554271505    1.12646297226954    1.87574360984551
C        -3.13691439029170    1.67803085680374    1.96089846923805
C        -4.17049115080556    1.09212861868548    1.23197939010523
C        -3.87878627180213   -0.00374038633643    0.45128543239315
H        -4.66205626700370   -0.47026533841763   -0.12226330022599
H        -3.31465388652684    2.53513278010215    2.58854785434806
H        -1.04388247640371    1.55362429433017    2.41481181577176
Ir        0.42150000000000   -0.81650000000000    0.91330000000000
H         0.87260000000000   -2.23030000000000    1.54050000000000
B         0.47898448700181    0.46956606372034   -0.72321015966382
O         0.10065674738180    0.00035066682300   -1.97427238965500