12
 energy: -19.198564396375 gnorm: 0.034667880225 xtb: 6.4.0 (f63f532)
C         1.52534000000000   -1.21777000000000    0.01355000000000
C         2.92126000000000   -1.19612000000000   -0.00407000000000
C         3.60135000000000    0.02172000000000   -0.01514000000000
C         2.88797000000000    1.22042000000000   -0.00507000000000
C         1.49221000000000    1.20342000000000    0.01256000000000
C         0.81574000000000   -0.01641000000000    0.01879000000000
I        -1.26300000000000   -0.04480000000000    0.02984000000000
H         1.00849000000000   -2.17353000000000    0.02098000000000
H         3.47834000000000   -2.12954000000000   -0.01022000000000
H         4.68832000000000    0.03668000000000   -0.03233000000000
H         3.41941000000000    2.16905000000000   -0.01263000000000
H         0.94925000000000    2.14508000000000    0.01909000000000
12
 energy: -19.200079883397 gnorm: 0.007576942809 xtb: 6.4.0 (f63f532)
C         1.53696066678961   -1.21107433661582    0.01079512852931
C         2.92286074742098   -1.18789974075013   -0.00394613318433
C         3.60023869086005    0.02175130240463   -0.01369024880049
C         2.88990383556372    1.21237303576502   -0.00517559637024
C         1.50395415684391    1.19725047326410    0.00965372960338
C         0.83347438216802   -0.01623778851563    0.01560022227881
I        -1.30256542497360   -0.04544517931743    0.03739730716494
H         1.01538966565955   -2.15810840809219    0.01848415828588
H         3.47271346295519   -2.11830693388367   -0.00945437806108
H         4.68096688677221    0.03652725989306   -0.02928928877048
H         3.41411560447529    2.15758144082196   -0.01160900899190
H         0.95666732546507    2.12978887502610    0.01658410831622
12
 energy: -19.200198134597 gnorm: 0.002554847551 xtb: 6.4.0 (f63f532)
C         1.53722905193533   -1.21084638937270    0.01136678173028
C         2.92125766170994   -1.18627755817166   -0.00468428509856
C         3.59828943935127    0.02172691733235   -0.01393879019533
C         2.88840093005559    1.21075367873764   -0.00582111320371
C         1.50419664884334    1.19720726445484    0.01022468618725
C         0.84221548690266   -0.01610603989722    0.01860573107874
I        -1.28640565455682   -0.04537528318930    0.03574345173900
H         1.01159204001181   -2.15365068543774    0.01835207199731
H         3.46810562661554   -2.11643441165094   -0.01029336454465
H         4.67722795690418    0.03639409430955   -0.02816641270630
H         3.40966275895949    2.15552224999267   -0.01234976341621
H         0.95290805326765    2.12528616289252    0.01631100643216
12
 energy: -19.200204371569 gnorm: 0.000933702498 xtb: 6.4.0 (f63f532)
C         1.53690594738625   -1.21193244656011    0.01039421023085
C         2.92171601908742   -1.18662952587387   -0.00411427423378
C         3.59874528913573    0.02174242500616   -0.01302067902683
C         2.88876578775160    1.21107269503917   -0.00525715782088
C         1.50378734578240    1.19815433433615    0.00920958495662
C         0.84329842251950   -0.01617805646509    0.01604525597213
I        -1.28535671093179   -0.04500181874338    0.03950091374517
H         1.00992331665685   -2.15377393482621    0.01709900601823
H         3.46834698853042   -2.11714500124021   -0.01019918444525
H         4.67765140387443    0.03645966724129   -0.02713641814459
H         3.40970819440947    2.15625187401736   -0.01220343295791
H         0.95118799579772    2.12517978806875    0.01503217570624
12
 energy: -19.200204140783 gnorm: 0.000885102974 xtb: 6.4.0 (f63f532)
C         1.53671593246469   -1.21289441101381    0.01117374386922
C         2.92217107005037   -1.18688437283035   -0.00508778695297
C         3.59905244550624    0.02174749647694   -0.01368223360860
C         2.88926266102565    1.21135863728680   -0.00620939006962
C         1.50365307806588    1.19916537684893    0.00999697040822
C         0.84429731970843   -0.01612614327836    0.01924155038578
I        -1.28541994714698   -0.04519523771364    0.03662164811232
H         1.00838258005201   -2.15371853443441    0.01788205879155
H         3.46868475068492   -2.11778121477994   -0.01086089592195
H         4.67801094444310    0.03646374128262   -0.02665689200576
H         3.41006206245769    2.15693310146348   -0.01282671018954
H         0.94980710268800    2.12513156069175    0.01575793718134
12
 energy: -19.200205563273 gnorm: 0.000156887492 xtb: 6.4.0 (f63f532)
C         1.53689217863446   -1.21248155324189    0.01064937096759
C         2.92199926578928   -1.18672029954672   -0.00445834925156
C         3.59879037582871    0.02173886643452   -0.01317561701282
C         2.88908677116765    1.21118641472625   -0.00558594217274
C         1.50381677911744    1.19875300747364    0.00947402319230
C         0.84398302039967   -0.01613572929910    0.01718924342190
I        -1.28555653959381   -0.04516678664447    0.03866584118502
H         1.00898952121786   -2.15358846256854    0.01726748360510
H         3.46858900755751   -2.11746197497224   -0.01054064165860
H         4.67775113863263    0.03644973875100   -0.02677599519558
H         3.40997539495977    2.15659984480214   -0.01252455409982
H         0.95036308628882    2.12502693408542    0.01516513701921
12
 energy: -19.200205574284 gnorm: 0.000125142328 xtb: 6.4.0 (f63f532)
C         1.53690824279482   -1.21244951579153    0.01070433775452
C         2.92198453312210   -1.18674346146829   -0.00452121305569
C         3.59877242863473    0.02173873975298   -0.01325421253053
C         2.88903756744785    1.21119161316686   -0.00565005731591
C         1.50379707465249    1.19867493048883    0.00950919075760
C         0.84388633708168   -0.01616726711864    0.01737616108718
I        -1.28545560015624   -0.04502737639541    0.03838136960156
H         1.00906184779552   -2.15362734630492    0.01739263801812
H         3.46861122669246   -2.11744959695644   -0.01052573684679
H         4.67775444000575    0.03646365501113   -0.02685574979321
H         3.40994545419163    2.15658094920183   -0.01250097383836
H         0.95037644773722    2.12501467641360    0.01529424616152
