111
 energy: -157.913071659195 gnorm: 0.075383907475 xtb: 6.4.0 (f63f532)
N        -0.96510000000000   -2.11530000000000   -0.24090000000000
C        -2.24700000000000   -1.69840000000000   -0.36220000000000
C        -3.14040000000000   -2.36820000000000   -1.21200000000000
C        -2.70220000000000   -3.47560000000000   -1.93050000000000
C        -1.37780000000000   -3.89880000000000   -1.78760000000000
C        -0.54290000000000   -3.18670000000000   -0.93510000000000
H         0.49810000000000   -3.45630000000000   -0.78940000000000
H        -0.99570000000000   -4.76030000000000   -2.32770000000000
H        -4.16500000000000   -2.02890000000000   -1.31830000000000
C        -2.62130000000000   -0.50950000000000    0.44100000000000
N        -1.62600000000000    0.07330000000000    1.16020000000000
C        -1.89680000000000    1.15240000000000    1.91690000000000
C        -3.17230000000000    1.70330000000000    1.99650000000000
C        -4.20510000000000    1.11740000000000    1.26270000000000
C        -3.92610000000000    0.00250000000000    0.47820000000000
H        -4.71960000000000   -0.46420000000000   -0.09520000000000
H        -3.34630000000000    2.57510000000000    2.62070000000000
H        -1.04450000000000    1.57420000000000    2.43690000000000
Ir        0.42150000000000   -0.81650000000000    0.91330000000000
H         0.87260000000000   -2.23030000000000    1.54050000000000
B         0.50670000000000    0.41560000000000   -0.81540000000000
O         0.19500000000000   -0.04700000000000   -2.09150000000000
C         0.00650000000000    1.10040000000000   -2.95430000000000
C         0.49020000000000    0.74740000000000   -4.35780000000000
H         1.51610000000000    0.37380000000000   -4.33700000000000
H         0.44730000000000    1.62240000000000   -5.01670000000000
H        -0.14740000000000   -0.03390000000000   -4.78430000000000
C        -1.50120000000000    1.39560000000000   -2.96670000000000
H        -1.75370000000000    2.21460000000000   -3.64850000000000
H        -2.03200000000000    0.49450000000000   -3.28930000000000
H        -1.85170000000000    1.65210000000000   -1.96220000000000
C         0.84230000000000    2.20670000000000   -2.22040000000000
O         0.75200000000000    1.78260000000000   -0.83690000000000
C         2.32930000000000    2.18620000000000   -2.59900000000000
H         2.74130000000000    1.18500000000000   -2.45750000000000
H         2.48870000000000    2.51300000000000   -3.63180000000000
H         2.87200000000000    2.86270000000000   -1.93200000000000
C         0.28440000000001    3.62290000000000   -2.33660000000000
H        -0.72650000000000    3.69040000000000   -1.92910000000000
H         0.92130000000000    4.31480000000000   -1.77610000000000
H         0.26430000000001    3.94810000000000   -3.38320000000000
B         1.56300000000000    0.60960000000000    1.84840000000000
O         2.92780000000000    0.55230000000000    2.15020000000000
C         3.36330000000000    1.88660000000000    2.50260000000000
C         4.53140000000000    1.78590000000000    3.47740000000000
H         4.27910000000000    1.16090000000000    4.33690000000000
H         5.39390000000000    1.33790000000000    2.97340000000000
H         4.82390000000000    2.77870000000000    3.83820000000000
C         3.79700000000000    2.56850000000000    1.19670000000000
H         4.20020000000000    3.57090000000000    1.37680000000000
H         4.56740000000000    1.95560000000000    0.72110000000000
H         2.95240000000000    2.63260000000000    0.50540000000000
C         2.05040000000000    2.50090000000000    3.09320000000000
O         1.03750000000000    1.81620000000000    2.31910000000000
C         1.89100000000000    4.00450000000000    2.88650000000000
H         1.87290000000000    4.25440000000000    1.82410000000000
H         0.94940000000000    4.34260000000000    3.33170000000000
H         2.71080000000000    4.55150000000000    3.36630000000000
C         1.82470000000000    2.13200000000000    4.56520000000000
H         1.92610000000000    1.05330000000000    4.71320000000000
H         2.52610000000000    2.65280000000000    5.22540000000000
H         0.80630000000000    2.41580000000000    4.84900000000000
B         2.27820000000000   -1.33090000000000    0.17410000000000
O         2.89460000000000   -2.57740000000000    0.38450000000000
C         4.26930000000000   -2.48200000000000   -0.07210000000000
C         5.10900000000000   -2.05380000000000    1.14010000000000
H         4.76350000000000   -1.08740000000000    1.51750000000000
H         4.98050000000000   -2.79470000000000    1.93590000000000
H         6.17420000000000   -1.99290000000000    0.89300000000000
C         4.71950000000000   -3.84660000000000   -0.58470000000000
H         4.75280000000000   -4.56130000000000    0.24420000000000
H         5.72330000000000   -3.78370000000000   -1.02010000000000
H         4.03500000000000   -4.23600000000000   -1.34170000000000
C         4.16440000000000   -1.36220000000000   -1.16300000000000
O         3.08520000000000   -0.55030000000000   -0.65400000000000
C         5.40720000000000   -0.48870000000000   -1.31550000000000
H         6.27320000000000   -1.09010000000000   -1.61530000000000
H         5.23300000000000    0.26930000000000   -2.08590000000000
H         5.64270000000000    0.02650000000000   -0.38240000000000
C         3.71800000000000   -1.89830000000000   -2.53110000000000
H         2.82530000000000   -2.52160000000000   -2.42740000000000
H         3.46090000000000   -1.05250000000000   -3.17550000000000
H         4.50570000000000   -2.48290000000000   -3.01790000000000
H        -3.38500000000000   -4.00130000000000   -2.59310000000001
H        -5.21400000000000    1.52080000000000    1.29960000000000
C         0.23590000000002   -1.68140000000000    2.96029999999998
C        -1.00974304782102   -2.13901341311945    3.38604892041211
C         1.23461236613287   -1.65618591473395    3.93079544713770
C        -1.20110078821297   -2.52482157063173    4.70594569863349
H        -1.83941464971612   -2.22390771932555    2.69338037292682
N         1.07536498211404   -2.04542858595724    5.19263516172891
H         2.23706987494578   -1.33341161430016    3.67553454809599
C        -0.12060033828638   -2.49976625486424    5.58032376368459
H        -2.16603435675599   -2.88130730122963    5.04294041249241
C        -0.18679728794357   -3.10199590361579    6.95654207663465
C         0.11171775979422   -4.60505187721079    6.84633690204925
H        -1.17415745737806   -2.95030886534845    7.40144172683717
H         0.56899029580465   -2.63103691565161    7.59020530467290
C         0.21309894534560   -5.25804657763604    8.19825157081274
H         1.05594809317325   -4.72650821104608    6.30652565407862
H        -0.67981221464531   -5.08292707396504    6.26038823244389
C        -0.92187608123457   -5.74175874640637    8.84415548206027
C         1.44678670886021   -5.38046474587367    8.83348526814879
C        -0.82592607322724   -6.34130554679798   10.09160919893075
H        -1.88790317281244   -5.65458475452117    8.36167476022642
C         1.54534632494987   -5.98081569961909   10.08020182501315
H         2.33638847805350   -5.00674296352297    8.34112996034079
C         0.40901626225370   -6.46486152888751   10.71132949620045
H        -1.71671951828737   -6.71852605604079   10.57843938032735
H         2.51240130549602   -6.07545488418767   10.55774648600623
H         0.48525422309013   -6.93828374397597   11.68179541974181
111
 energy: -157.919478831005 gnorm: 0.045716771153 xtb: 6.4.0 (f63f532)
N        -0.96203900085781   -2.10038728561200   -0.25055025157091
C        -2.24036183375689   -1.69019333091613   -0.36399967340964
C        -3.13485142850491   -2.36184782012371   -1.20633244699576
C        -2.70434607372224   -3.46342581425672   -1.92173269350377
C        -1.38433269535504   -3.88229553967140   -1.78223792901523
C        -0.55417263513882   -3.16782813457515   -0.94046722450687
H         0.47947377438843   -3.44803755674307   -0.79052445151199
H        -1.00791516638824   -4.74247488721291   -2.31717024307687
H        -4.15530542742409   -2.02639050391543   -1.31058145042717
C        -2.61190826409984   -0.51338063143392    0.43597372250124
N        -1.61954140697779    0.06599700013749    1.14875000701029
C        -1.89767483661549    1.13861203013407    1.89403898107090
C        -3.16446756174084    1.68817007708077    1.98138703167403
C        -4.19596663329267    1.10386312488270    1.25478207400372
C        -3.91470227745795   -0.00282650438248    0.47481798653849
H        -4.70593118319265   -0.46592947944355   -0.09454047710262
H        -3.33926628995358    2.55161435999585    2.60778332780163
H        -1.05450357452036    1.55714100030538    2.42277443108635
Ir        0.42150000000000   -0.81650000000000    0.91330000000000
H         0.87260000000000   -2.23030000000000    1.54050000000000
B         0.49057395922894    0.42478009351540   -0.78948359762060
O         0.17533693932075   -0.03529344817492   -2.06157863379181
C         0.01117365060547    1.09599610949574   -2.94328601781977
C         0.49049063680901    0.74596564692399   -4.34803061496572
H         1.50941672602556    0.36921831700639   -4.32650456124593
H         0.44583701641536    1.62131331659452   -4.99662708949439
H        -0.14830121164199   -0.02992586285313   -4.76851408687535
C        -1.49290305203622    1.39861213012114   -2.97039009731786
H        -1.73084688030837    2.21137715963297   -3.65490996704100
H        -2.02291133728519    0.50149226756827   -3.29032697526726
H        -1.83981884309356    1.65389084026069   -1.96896485564938
C         0.83265394401147    2.20631427771479   -2.21244378703050
O         0.75553296088902    1.78034540452391   -0.83497768402404
C         2.31513156206123    2.18989107811209   -2.59994342303990
H         2.71939396485495    1.19084944179054   -2.44962759673880
H         2.46670486730825    2.51100708577717   -3.62979322163728
H         2.85733655177470    2.86482042879536   -1.93873191048411
C         0.28121985584035    3.62236597519262   -2.34034399783554
H        -0.72213742345927    3.69164788308510   -1.92828641198497
H         0.92079570687790    4.30615183459881   -1.78381084110523
H         0.26387654707626    3.93436113908591   -3.38470277510626
B         1.56507501899765    0.61791408495802    1.85426967995000
O         2.92520217127316    0.56593772737226    2.13467857326303
C         3.36312108021695    1.88702309149848    2.50932820765075
C         4.53230859464735    1.78889504872122    3.48062558107883
H         4.27962957199959    1.16025621151746    4.33048008437638
H         5.38752351378479    1.34485772913418    2.97292173758149
H         4.81470945588330    2.77927294163563    3.83678241937849
C         3.79915025793598    2.57433884183591    1.21090763147441
H         4.20055049775773    3.56990737574962    1.39521023902132
H         4.56327393083499    1.96268714667455    0.73422476758275
H         2.95114962652091    2.62677226359936    0.52932788362875
C         2.05277831841894    2.50489789357106    3.08941305822225
O         1.04013822644113    1.80893754643191    2.33565073291916
C         1.89374824323598    4.00700669668199    2.88819842761925
H         1.86856988971740    4.25054191875574    1.82984074811366
H         0.95637754988578    4.33638832924850    3.33480519220159
H         2.71425803854509    4.54305378658653    3.36448595019554
C         1.83133885840880    2.14124662104389    4.56182300350913
H         1.93306087302377    1.06587622359382    4.70296775591983
H         2.53222817882565    2.66325487945750    5.21058239044804
H         0.81680335673682    2.42012701776736    4.84611770839958
B         2.27820000000000   -1.33090000000000    0.17410000000000
O         2.90013648088963   -2.56180677752888    0.39116258831466
C         4.26506712950279   -2.48375214204334   -0.07674373558346
C         5.10947172550107   -2.05879168235018    1.12895574510636
H         4.75330036039190   -1.09871416858843    1.49993406824021
H         4.97769885005544   -2.79340988887438    1.92244594365126
H         6.16722291648632   -1.99898089763062    0.87702522522444
C         4.71968817396704   -3.84601977409910   -0.58642714540531
H         4.74933207952823   -4.55007130727232    0.24385312278023
H         5.71754350250959   -3.77438584372449   -1.01834489322217
H         4.03426908657864   -4.23374032212716   -1.33530528923361
C         4.16626097402717   -1.36102149714242   -1.15728200907507
O         3.07363002934700   -0.56412395091870   -0.66245861261440
C         5.40954691621713   -0.49280367664856   -1.31481348896772
H         6.26572067438058   -1.09877367717477   -1.61010545173456
H         5.23142587465018    0.25811787110739   -2.08336474261232
H         5.63699998822614    0.02179426219375   -0.38575819380891
C         3.72962250923411   -1.90044006929214   -2.52541005150091
H         2.83751475100988   -2.51581231247393   -2.41684528635508
H         3.47258335064503   -1.05899161027979   -3.16745319641773
H         4.51984165280490   -2.47765999611381   -3.00260821107232
H        -3.38356001996876   -3.98834415202064   -2.57965457262523
H        -5.19983690985127    1.50532386853079    1.29485938388062
C         0.23590000000002   -1.68139999999999    2.96029999999998
C        -1.01060799487095   -2.14012214959070    3.38651539109506
C         1.23412598898206   -1.65715011376829    3.93572353134063
C        -1.19998673184103   -2.52522815273838    4.70532608962886
H        -1.83960849622584   -2.22566820960418    2.69476712754641
N         1.07237985683875   -2.04597199946307    5.19159484992027
H         2.23601998292940   -1.33435229608084    3.68226520945898
C        -0.11922666394026   -2.49934585861332    5.57847402011532
H        -2.16389501643246   -2.88124813730087    5.04272756046084
C        -0.18626112354790   -3.09927755903544    6.95447647287208
C         0.11241544238325   -4.60619519990209    6.84872526780031
H        -1.17206210311154   -2.94762488213224    7.39844500474300
H         0.56744312648901   -2.62879518818794    7.58728203026750
C         0.21316158443298   -5.25703865488186    8.19962776828125
H         1.05497145598582   -4.72779953624405    6.30973100590951
H        -0.67787447328567   -5.08350357781964    6.26335391617843
C        -0.91967151232795   -5.74040105277199    8.84445615719547
C         1.44434157161404   -5.37911216392663    8.83416039019772
C        -0.82441251749440   -6.33868781540021   10.08962705586627
H        -1.88419448341689   -5.65400483818043    8.36260122580564
C         1.54299870229866   -5.97797175554747   10.07861239811277
H         2.33245216968221   -5.00624004671554    8.34287595458923
C         0.40839918729223   -6.46167817973359   10.70903820258643
H        -1.71375569965360   -6.71561739355159   10.57550706918983
H         2.50867326412894   -6.07251351700064   10.55552669181968
H         0.48452634827824   -6.93442590356051   11.67812239421642
111
 energy: -157.921066400754 gnorm: 0.035974680225 xtb: 6.4.0 (f63f532)
N        -0.95511559060527   -2.09295143201289   -0.25799772355504
C        -2.23146929597213   -1.68381936178935   -0.36677780730046
C        -3.13098071601544   -2.35441597967340   -1.20391455719322
C        -2.70852837275741   -3.45346336240695   -1.91984721617266
C        -1.38886859498953   -3.87278572846436   -1.78377496547688
C        -0.55894389746197   -3.15863832951419   -0.94665081509154
H         0.47345519757310   -3.44256215151570   -0.80437330740337
H        -1.01799862285157   -4.73263231110865   -2.31677819629048
H        -4.15014962435299   -2.01993214536689   -1.30043296865400
C        -2.59953829213670   -0.51549676199147    0.42913943758360
N        -1.61002441901730    0.05896801173230    1.14399355818918
C        -1.89437324983954    1.12662994385278    1.88393702707692
C        -3.15670309598487    1.67751789032257    1.97258238092654
C        -4.18848337612876    1.09379546841395    1.24599435666038
C        -3.90288354638230   -0.00673840970797    0.46645366295738
H        -4.69127480894657   -0.47119946802951   -0.10134670763835
H        -3.33195483141978    2.53744022965115    2.59818396489992
H        -1.05631398292693    1.55054386672110    2.41345923415057
Ir        0.42150000000000   -0.81650000000000    0.91330000000000
H         0.87260000000000   -2.23030000000000    1.54050000000000
B         0.49382433743388    0.43525159541600   -0.76693831547501
O         0.15567368823699   -0.02614612448062   -2.03117539211051
C         0.00718032595245    1.09238853212397   -2.92353895519334
C         0.49217651994366    0.73614872610458   -4.32513150382052
H         1.50732056960389    0.35548238688392   -4.30386835970098
H         0.44827815332834    1.61435651930822   -4.96438979865410
H        -0.15061223455081   -0.03362389161726   -4.74424130739278
C        -1.49503899459906    1.40492832714489   -2.97107110657081
H        -1.71388593221512    2.21373715374424   -3.66180091497558
H        -2.02449369438809    0.51021854504922   -3.29192289013562
H        -1.84512231795701    1.66431226062611   -1.97406931832136
C         0.82576205313072    2.20530500684573   -2.19995449676009
O         0.75954999334216    1.78458756226068   -0.82686450145000
C         2.30580285169184    2.19349508797576   -2.59722493428773
H         2.70723817014228    1.19612738543709   -2.43939183919411
H         2.44428331923549    2.50662036459981   -3.62821181207472
H         2.84791751955254    2.87341303765666   -1.94465253254895
C         0.27202839970962    3.61990248912862   -2.33810189462190
H        -0.72735467549578    3.69555044964998   -1.92295676943209
H         0.91673855119784    4.30273477597577   -1.79138163092486
H         0.25559822706493    3.91455160090598   -3.38410911211579
B         1.56757444535561    0.62381142214332    1.86202696939753
O         2.92366394764529    0.57673312567193    2.12224437600637
C         3.36164074779524    1.88833068979703    2.51190551326487
C         4.52853333232696    1.78866342825243    3.48651324354294
H         4.27835641796094    1.15505977722455    4.33050426331316
H         5.38185577371033    1.35206340788079    2.97485785916312
H         4.80082308430006    2.77848523056670    3.84163604244067
C         3.80305198881022    2.58683396566634    1.22146212961606
H         4.20111229547788    3.57843111404686    1.41408459512434
H         4.56655874183572    1.97781486323853    0.74504560513269
H         2.95397526915132    2.63396461964397    0.54388323485300
C         2.05310213649045    2.50474656266670    3.09114491124349
O         1.04183479337826    1.80147677010570    2.35082838900655
C         1.89562795943705    4.00663488793266    2.88674848917501
H         1.86281792585606    4.24794798468197    1.83023788172633
H         0.96326158799774    4.33281290381552    3.33939190997817
H         2.71984396609209    4.53420134927622    3.35814084857792
C         1.84129781797738    2.15154129119106    4.56824859198073
H         1.94523267224951    1.07800035002007    4.70695123383058
H         2.54458787203858    2.67835193603088    5.20513635539527
H         0.82869198261089    2.42813631651276    4.85311173443224
B         2.27819999999999   -1.33089999999999    0.17410000000000
O         2.90150074502895   -2.54981153081151    0.40087454443576
C         4.25760429234019   -2.48251068575140   -0.07568849386285
C         5.11230167698005   -2.06092084062227    1.12341237431206
H         4.75146161691363   -1.10345191625371    1.49100611915580
H         4.98089333397530   -2.79352828855151    1.91529026400994
H         6.16447905395455   -2.00260026856678    0.86274102525554
C         4.71084146878237   -3.84489962234910   -0.58744425820454
H         4.74269032947563   -4.54211629798092    0.24473816604046
H         5.70479756546619   -3.76448114504061   -1.01813142301540
H         4.02547346211197   -4.23450917361469   -1.33191674542742
C         4.16181956966802   -1.36227723354330   -1.15500864363908
O         3.06173179739960   -0.57408063027376   -0.67102239898374
C         5.40664707717135   -0.49580800110881   -1.30787809421551
H         6.25521999748791   -1.10933708694541   -1.59688033201436
H         5.23048480437986    0.24815719147337   -2.07974824208439
H         5.63029433257362    0.02127750023476   -0.38196265600297
C         3.74055672938837   -1.90590028109133   -2.52691740327594
H         2.84934972889096   -2.51846364717200   -2.41778872673966
H         3.48768328326095   -1.06646328084821   -3.16982635633474
H         4.53723437992622   -2.47911672472285   -2.99057947777779
H        -3.38935617098284   -3.97875340672160   -2.57134456478444
H        -5.19096056395775    1.49119815316964    1.28921402782080
C         0.23590000000002   -1.68139999999998    2.96029999999997
C        -1.01081944903688   -2.14152507595390    3.38688262463279
C         1.23410218509519   -1.65710039267375    3.93895977172824
C        -1.19980400819298   -2.52587508324639    4.70533998309777
H        -1.83913442625024   -2.22809603639938    2.69510965131079
N         1.07024200233712   -2.04588941195699    5.19084005771512
H         2.23529821379504   -1.33321315730927    3.68546932471819
C        -0.11869965040425   -2.49902814302718    5.57813033781568
H        -2.16319479151579   -2.88225714565177    5.04259152729655
C        -0.18676585873363   -3.09656926026640    6.95415767230487
C         0.11275460709376   -4.60598278117489    6.84951982891297
H        -1.17219054017343   -2.94587042509207    7.39700034991629
H         0.56653442034518   -2.62674051316361    7.58612419493341
C         0.21281806635304   -5.25395128561593    8.20015802226894
H         1.05487913368139   -4.72678784330498    6.31143286002927
H        -0.67754954416344   -5.08236444471211    6.26481724829095
C        -0.91925173863139   -5.73767263758051    8.84424629599232
C         1.44300150055784   -5.37534252865599    8.83476660333009
C        -0.82442517222331   -6.33533305693854   10.08868187850158
H        -1.88299742209858   -5.65222757792746    8.36224656682440
C         1.54168204352049   -5.97356007360346   10.07843424474251
H         2.33048582607544   -5.00274552920355    8.34404158148348
C         0.40759719528039   -6.45757471571245   10.70852565503177
H        -1.71306901775074   -6.71256238535426   10.57384322588346
H         2.50661990503695   -6.06769504431691   10.55533219523791
H         0.48362879819460   -6.92978906313721   11.67703386834573
111
 energy: -157.921577174658 gnorm: 0.035263345478 xtb: 6.4.0 (f63f532)
N        -0.94685774690462   -2.08991887152751   -0.26803135041642
C        -2.22407431887894   -1.68081004687347   -0.37144299164591
C        -3.12859942202618   -2.35148661409092   -1.20432610945217
C        -2.71170720415236   -3.45092186687103   -1.92155092179639
C        -1.39024753984178   -3.87036843480611   -1.79153575192377
C        -0.55620108136332   -3.15512763773015   -0.95919399141843
H         0.47619170208000   -3.44280628416844   -0.82193803953653
H        -1.02339093258160   -4.73111944612139   -2.32490888571319
H        -4.14770103833363   -2.01534720539809   -1.29486832023699
C        -2.59026937182420   -0.51578877362057    0.42431772021761
N        -1.60137048468871    0.05824491914101    1.14106189556278
C        -1.88877174455856    1.12552546893561    1.87949441492057
C        -3.15140119448739    1.67500163033453    1.96893402809672
C        -4.18360885622811    1.08987869299941    1.24149602571086
C        -3.89479895780823   -0.00807246395012    0.46087198941498
H        -4.68061772862619   -0.47294534704338   -0.10991864163751
H        -3.32799293974168    2.53309271310860    2.59563563283370
H        -1.05397668788049    1.55064812212618    2.41380725852340
Ir        0.42150000000000   -0.81650000000000    0.91330000000000
H         0.87260000000000   -2.23030000000000    1.54050000000000
B         0.48051195983429    0.44886166066989   -0.74830597391056
O         0.13482516565121   -0.01834666194692   -2.00815251585271
C        -0.00064167650615    1.09188149438521   -2.90745793860372
C         0.49209287736538    0.72461320701667   -4.30430629590553
H         1.50466038974559    0.33788030078481   -4.27590229645193
H         0.45601474607390    1.60212332185066   -4.94444521753942
H        -0.15364464311182   -0.04254187632478   -4.72330217072816
C        -1.50155940314481    1.41280096666968   -2.97155115112122
H        -1.70565918502497    2.21937377389125   -3.66887836617662
H        -2.03206294170056    0.51949320032206   -3.29393437084352
H        -1.86014838873511    1.67906459555170   -1.97951638305224
C         0.81888964030987    2.20712144377088   -2.18808357631837
O         0.76019535881745    1.79332337103990   -0.81568067555807
C         2.29764339365995    2.19629570259955   -2.59341508768273
H         2.70111896815363    1.20088186280735   -2.42890707637462
H         2.42788556425921    2.50118417269318   -3.62757043703773
H         2.84071896483641    2.88343725765267   -1.94944596054342
C         0.26410321497813    3.62143022484651   -2.33423238610336
H        -0.73330197099743    3.70115306197898   -1.91547546549014
H         0.91229090685928    4.30862861863061   -1.79726754777749
H         0.24346927159678    3.90370423678747   -3.38335982355680
B         1.56869559848787    0.62662911221389    1.86629960421109
O         2.92462045052561    0.58322930657698    2.11192497925434
C         3.36138554174009    1.88985899801770    2.51348552019735
C         4.52689880679798    1.78644204351532    3.49081571233640
H         4.27740567641768    1.14664185129274    4.33017323238449
H         5.38277530497216    1.35692447149212    2.97762183512875
H         4.79265295575828    2.77566525350371    3.85181411213161
C         3.80727338648759    2.59929381384216    1.22950289229990
H         4.20166121715707    3.58995958207944    1.43174566312192
H         4.57437007917764    1.99520297676461    0.75268310564426
H         2.96018755063407    2.64819906343182    0.54991436395913
C         2.05310133037323    2.50454265680134    3.09535631446802
O         1.04053840492493    1.79541107274132    2.36559156670229
C         1.89385045661061    4.00654856388249    2.88662887879702
H         1.85316417366193    4.24514757334529    1.82980375790968
H         0.96558151571637    4.33440639429750    3.34618197815368
H         2.72308624150008    4.53254438135834    3.35036707337577
C         1.85083028339277    2.16032692682638    4.57689914788246
H         1.95778693605731    1.08788615968782    4.72047608068120
H         2.55752548089584    2.69329353664801    5.20431396975705
H         0.83946249514268    2.43691643332877    4.86536248972479
B         2.27819999999999   -1.33089999999998    0.17410000000001
O         2.90234403696369   -2.54394030290957    0.41089365954749
C         4.25296419464702   -2.48248763408816   -0.07343380411578
C         5.11634034774371   -2.06198041569173    1.12084390337662
H         4.75711187594063   -1.10437815887889    1.48932773340580
H         4.98793026096930   -2.79463614984871    1.91290621952848
H         6.16620372339699   -2.00496063307085    0.85285697773732
C         4.70205767133495   -3.84704933525183   -0.58568991569578
H         4.73698445232693   -4.54234435326020    0.24773442487138
H         5.69397111235544   -3.76474960400113   -1.01984795932019
H         4.01388695828014   -4.23735538466296   -1.32704070021751
C         4.15858051002026   -1.36415515512765   -1.15487382029588
O         3.05332907917680   -0.57967546601369   -0.68040600592801
C         5.40370092995726   -0.49623891364642   -1.30246830877035
H         6.25210652188227   -1.11342236477550   -1.58335662871920
H         5.23218697936030    0.24386844705614   -2.07888665249386
H         5.62190940520139    0.02429820633840   -0.37735728030719
C         3.75018925564277   -1.91175851324610   -2.53007803811292
H         2.85930530559511   -2.52531749942360   -2.42664777009559
H         3.50291335435407   -1.07383561953914   -3.17697716871175
H         4.55318024230259   -2.48417185414642   -2.98283685555842
H        -3.39593618536246   -3.97580863844159   -2.56947010568519
H        -5.18673111597211    1.48476590796269    1.28539416402650
C         0.23590000000002   -1.68139999999997    2.96029999999997
C        -1.01050283701490   -2.14258833004462    3.38679739732249
C         1.23401536933779   -1.65578990725197    3.94002273844600
C        -1.20021809590588   -2.52594036570168    4.70544470975383
H        -1.83818371449887   -2.23063504621796    2.69439878646232
N         1.06905626925154   -2.04404173917144    5.19106002187167
H         2.23477403866040   -1.33107637294150    3.68574341871365
C        -0.11939428503017   -2.49750361489485    5.57877628936497
H        -2.16350214894744   -2.88305071745263    5.04219201730289
C        -0.18769275510441   -3.09430859756282    6.95464653361760
C         0.11263999613754   -4.60433183733528    6.84968518391261
H        -1.17334150337077   -2.94476391144155    7.39689649526770
H         0.56556140922001   -2.62474802814959    7.58665652347448
C         0.21246129387817   -5.25129021024770    8.20019233910624
H         1.05489752747973   -4.72415338882241    6.31190936757900
H        -0.67772144414861   -5.08028331749557    6.26497709492079
C        -0.91970799080095   -5.73517147247611    8.84406159136786
C         1.44245472390775   -5.37125380994816    8.83556318411931
C        -0.82514298953287   -6.33196317488544   10.08894986587317
H        -1.88325533303271   -5.65043689035014    8.36153716678466
C         1.54092242371084   -5.96860312008579   10.07967469060603
H         2.32986741342083   -4.99814852348061    8.34511012909924
C         0.40676054409247   -6.45316263447861   10.70948588401741
H        -1.71373629514429   -6.70960139949619   10.57379146845435
H         2.50565433220804   -6.06198090309153   10.55704301458508