96
 energy: -138.352519034838 gnorm: 0.075254313149 xtb: 6.4.1 (1a32961)
N        -0.96510000000000   -2.11530000000000   -0.24090000000000
C        -2.24700000000000   -1.69840000000000   -0.36220000000000
C        -3.14040000000000   -2.36820000000000   -1.21200000000000
C        -2.70220000000000   -3.47560000000000   -1.93050000000000
C        -1.37780000000000   -3.89880000000000   -1.78760000000000
C        -0.54290000000000   -3.18670000000000   -0.93510000000000
H         0.49810000000000   -3.45630000000000   -0.78940000000000
H        -0.99570000000000   -4.76030000000000   -2.32770000000000
H        -4.16500000000000   -2.02890000000000   -1.31830000000000
C        -2.62130000000000   -0.50950000000000    0.44100000000000
N        -1.62600000000000    0.07330000000000    1.16020000000000
C        -1.89680000000000    1.15240000000000    1.91690000000000
C        -3.17230000000000    1.70330000000000    1.99650000000000
C        -4.20510000000000    1.11740000000000    1.26270000000000
C        -3.92610000000000    0.00250000000000    0.47820000000000
H        -4.71960000000000   -0.46420000000000   -0.09520000000000
H        -3.34630000000000    2.57510000000000    2.62070000000000
H        -1.04450000000000    1.57420000000000    2.43690000000000
Ir        0.42150000000000   -0.81650000000000    0.91330000000000
H         0.87260000000000   -2.23030000000000    1.54050000000000
B         0.50670000000000    0.41560000000000   -0.81540000000000
O         0.19500000000000   -0.04700000000000   -2.09150000000000
C         0.00650000000000    1.10040000000000   -2.95430000000000
C         0.49020000000000    0.74740000000000   -4.35780000000000
H         1.51610000000000    0.37380000000000   -4.33700000000000
H         0.44730000000000    1.62240000000000   -5.01670000000000
H        -0.14740000000000   -0.03390000000000   -4.78430000000000
C        -1.50120000000000    1.39560000000000   -2.96670000000000
H        -1.75370000000000    2.21460000000000   -3.64850000000000
H        -2.03200000000000    0.49450000000000   -3.28930000000000
H        -1.85170000000000    1.65210000000000   -1.96220000000000
C         0.84230000000000    2.20670000000000   -2.22040000000000
O         0.75200000000000    1.78260000000000   -0.83690000000000
C         2.32930000000000    2.18620000000000   -2.59900000000000
H         2.74130000000000    1.18500000000000   -2.45750000000000
H         2.48870000000000    2.51300000000000   -3.63180000000000
H         2.87200000000000    2.86270000000000   -1.93200000000000
C         0.28440000000000    3.62290000000000   -2.33660000000000
H        -0.72650000000000    3.69040000000000   -1.92910000000000
H         0.92130000000000    4.31480000000000   -1.77610000000000
H         0.26430000000000    3.94810000000000   -3.38320000000000
B         1.56300000000000    0.60960000000000    1.84840000000000
O         2.92780000000000    0.55230000000000    2.15020000000000
C         3.36330000000000    1.88660000000000    2.50260000000000
C         4.53140000000000    1.78590000000000    3.47740000000000
H         4.27910000000000    1.16090000000000    4.33690000000000
H         5.39390000000000    1.33790000000000    2.97340000000000
H         4.82390000000000    2.77870000000000    3.83820000000000
C         3.79700000000000    2.56850000000000    1.19670000000000
H         4.20020000000000    3.57090000000000    1.37680000000000
H         4.56740000000000    1.95560000000000    0.72110000000000
H         2.95240000000000    2.63260000000000    0.50540000000000
C         2.05040000000000    2.50090000000000    3.09320000000000
O         1.03750000000000    1.81620000000000    2.31910000000000
C         1.89100000000000    4.00450000000000    2.88650000000000
H         1.87290000000000    4.25440000000000    1.82410000000000
H         0.94940000000000    4.34260000000000    3.33170000000000
H         2.71080000000000    4.55150000000000    3.36630000000000
C         1.82470000000000    2.13200000000000    4.56520000000000
H         1.92610000000000    1.05330000000000    4.71320000000000
H         2.52610000000000    2.65280000000000    5.22540000000000
H         0.80630000000000    2.41580000000000    4.84900000000000
B         2.27820000000000   -1.33090000000000    0.17410000000000
O         2.89460000000000   -2.57740000000000    0.38450000000000
C         4.26930000000000   -2.48200000000000   -0.07210000000000
C         5.10900000000000   -2.05380000000000    1.14010000000000
H         4.76350000000000   -1.08740000000000    1.51750000000000
H         4.98050000000000   -2.79470000000000    1.93590000000000
H         6.17420000000000   -1.99290000000000    0.89300000000000
C         4.71950000000000   -3.84660000000000   -0.58470000000000
H         4.75280000000000   -4.56130000000000    0.24420000000000
H         5.72330000000000   -3.78370000000000   -1.02010000000000
H         4.03500000000000   -4.23600000000000   -1.34170000000000
C         4.16440000000000   -1.36220000000000   -1.16300000000000
O         3.08520000000000   -0.55030000000000   -0.65400000000000
C         5.40720000000000   -0.48870000000000   -1.31550000000000
H         6.27320000000000   -1.09010000000000   -1.61530000000000
H         5.23300000000000    0.26930000000000   -2.08590000000000
H         5.64270000000000    0.02650000000000   -0.38240000000000
C         3.71800000000000   -1.89830000000000   -2.53110000000000
H         2.82530000000000   -2.52160000000000   -2.42740000000000
H         3.46090000000000   -1.05250000000000   -3.17550000000000
H         4.50570000000000   -2.48290000000000   -3.01790000000000
H        -3.38500000000000   -4.00130000000000   -2.59310000000000
H        -5.21400000000000    1.52080000000000    1.29960000000000
C         0.23590000000000   -1.68140000000000    2.96030000000000
O        -0.91529245042526   -2.24235517873919    3.41744291688360
C         1.15960394305859   -1.68837882769335    3.97820001264891
C        -0.74198114295284   -2.56263683010477    4.72993188552153
C         0.52567103108853   -2.22958650556324    5.12042995872174
H         2.17595190302945   -1.35015323224333    3.89138890077437
C        -1.85975044523460   -3.18025475447932    5.48399802878129
H         0.95554979488442   -2.37801254588735    6.09469526079329
H        -2.62021973446287   -2.43886502846787    5.73807574104869
H        -1.47176984146293   -3.61339500453784    6.40516877838515
H        -2.33263290824393   -3.96292363829455    4.88960971450332
96
 energy: -138.358844482767 gnorm: 0.047643572947 xtb: 6.4.1 (1a32961)
N        -0.96247061496895   -2.10207622155554   -0.24922371013644
C        -2.24004010025903   -1.69153048256347   -0.36293222979887
C        -3.13444283533372   -2.36240182487872   -1.20547313732895
C        -2.70444588937206   -3.46416980104002   -1.92121349590739
C        -1.38485047594234   -3.88325880375177   -1.78179125151707
C        -0.55484258743569   -3.16953881946590   -0.93908452309070
H         0.47929588899315   -3.44896699545032   -0.79051227436814
H        -1.00835019978855   -4.74310927072494   -2.31723417331703
H        -4.15486952556183   -2.02684055768655   -1.30933474121224
C        -2.61200401340636   -0.51542504599113    0.43839082137522
N        -1.62021216558293    0.06471573356268    1.14930902501401
C        -1.89802830398725    1.13538520912766    1.89671700817549
C        -3.16495856792371    1.68545106361548    1.98442161806638
C        -4.19591721981984    1.10201788512478    1.25737670231728
C        -3.91469550767649   -0.00540121575254    0.47809958534085
H        -4.70580861812798   -0.46821454686022   -0.09151603237066
H        -3.33914698857357    2.55010000887410    2.60942996350063
H        -1.05405705488131    1.55490575886909    2.42368306904778
Ir        0.42150000000000   -0.81650000000000    0.91330000000000
H         0.87260000000000   -2.23030000000000    1.54050000000000
B         0.49622489307227    0.41953444314646   -0.79123866370667
O         0.17622901804371   -0.03730853737044   -2.06333493093342
C         0.01037623781681    1.09525651476661   -2.94298111546154
C         0.48908648895641    0.74653326809059   -4.34824054917885
H         1.50805286569757    0.36988004412521   -4.32709803835666
H         0.44399552143649    1.62223431856145   -4.99634440790302
H        -0.14972159221953   -0.02938661229158   -4.76857859215440
C        -1.49367860972726    1.39809659042617   -2.96921960554718
H        -1.73186665487681    2.21117641465280   -3.65337698665830
H        -2.02379320569421    0.50111074007427   -3.28918808612090
H        -1.84017974895378    1.65281456092315   -1.96753499015572
C         0.83182259228332    2.20511552618408   -2.21152954132251
O         0.75659806133759    1.77638865703042   -0.83465492634094
C         2.31405269683914    2.19012897963709   -2.60008240204841
H         2.71877091407526    1.19123529178019   -2.45023129346215
H         2.46486276183197    2.51174602307686   -3.62991159862468
H         2.85619765783725    2.86506455238341   -1.93881835379239
C         0.27998289012267    3.62126099565652   -2.33871927874679
H        -0.72327388019718    3.69043234923010   -1.92648006711841
H         0.91961338869574    4.30525210773462   -1.78247864772676
H         0.26223491405598    3.93358857762976   -3.38303445154702
B         1.56695354250888    0.61456146561822    1.85866863896987
O         2.92750046060812    0.56494885626537    2.13720532236573
C         3.36424447913655    1.88722119089819    2.50950040037482
C         4.53415209847156    1.79037321494403    3.48011919939465
H         4.28216890546123    1.16201328629481    4.33030793996991
H         5.38896829213746    1.34593385324083    2.97218418429084
H         4.81637381203254    2.78081324015772    3.83607858558021
C         3.79944073673343    2.57452541178135    1.21082128821710
H         4.20045011834340    3.57041087777781    1.39458419970541
H         4.56330713643910    1.96293159672727    0.73376110699668
H         2.95087603528625    2.62609089725220    0.52994622953027
C         2.05390501442602    2.50528932105633    3.08926835558439
O         1.04242514574827    1.80768831258107    2.33565891255706
C         1.89412549412720    4.00730438057513    2.88814050545630
H         1.86857914288988    4.25043382801318    1.82978225399986
H         0.95658303084194    4.33610833249839    3.33477045344288
H         2.71449335802208    4.54381870383728    3.36423020232156
C         1.83263858988090    2.14284200235766    4.56177373416493
H         1.93378051293128    1.06736361523647    4.69990097103799
H         2.53391849439160    2.66439584292232    5.21070118357329
H         0.81800576096243    2.42124884880571    4.84561072562781
B         2.27819999999999   -1.33090000000000    0.17410000000000
O         2.90080473674035   -2.56199955287653    0.38968602562539
C         4.26573679769085   -2.48344690176981   -0.07792171609516
C         5.11027393538345   -2.05838823514082    1.12769101310644
H         4.75307914781174   -1.09880416694738    1.49893301369188
H         4.97850359454182   -2.79329068421705    1.92087100707651
H         6.16804200703467   -1.99811869713811    0.87564232560945
C         4.72061255590066   -3.84550323171594   -0.58793808797956
H         4.75024977110213   -4.54964069858847    0.24224902779464
H         5.71835987070195   -3.77371635848325   -1.02012340793089
H         4.03480508004419   -4.23297897645442   -1.33652980569074
C         4.16648006452853   -1.36049493608370   -1.15807250522980
O         3.07399419671772   -0.56396087588926   -0.66235154536808
C         5.40953494946085   -0.49199668502649   -1.31599661829106
H         6.26573710009378   -1.09775939748569   -1.61164694445590
H         5.23081722100477    0.25895131250206   -2.08435979677315
H         5.63696349468162    0.02256803803998   -0.38693892593451
C         3.72949980187799   -1.89978895988262   -2.52614138718373
H         2.83742607664229   -2.51507274518570   -2.41712081747231
H         3.47199145091583   -1.05825406093618   -3.16783932835015
H         4.51960082878012   -2.47687542164675   -3.00373872901384
H        -3.38386707495175   -3.98900587315871   -2.57899792614685
H        -5.19953884985016    1.50428296880760    1.29662433021824
C         0.23590000000000   -1.68140000000001    2.96029999999999
O        -0.91696133726532   -2.24193314691775    3.41529743140641
C         1.15491908279300   -1.68482910733344    3.98176729514251
C        -0.74643904837532   -2.55943852495332    4.72860184951718
C         0.51693885304720   -2.22556087244734    5.12158282184970
H         2.16852780370045   -1.34635138706703    3.89825955886530
C        -1.86824365661404   -3.17827351407370    5.48137287989386
H         0.94278206145904   -2.37193937381966    6.09535319326631
H        -2.62878910845793   -2.43781417872598    5.73275080955578
H        -1.48322986671067   -3.60967474711580    6.40229519842336
H        -2.33847153220181   -3.96022659482352    4.88675273390699
96
 energy: -138.360474092535 gnorm: 0.039399976385 xtb: 6.4.1 (1a32961)
N        -0.95587928069228   -2.09680299555555   -0.25511420943867
C        -2.23121419791089   -1.68764253354918   -0.36349548757524
C        -3.13071232589273   -2.35668928169922   -1.20101153936129
C        -2.70904837537469   -3.45583788978151   -1.91793824326670
C        -1.38994990674924   -3.87537564850457   -1.78235425754105
C        -0.55991211167077   -3.16207747759797   -0.94425614591822
H         0.47293154094496   -3.44562563246894   -0.80331761760679
H        -1.01897211655606   -4.73473529062347   -2.31615868071011
H        -4.14964161502791   -2.02158212474045   -1.29733012658044
C        -2.59979959941349   -0.52025209969016    0.43489704864087
N        -1.61100843635938    0.05608045675459    1.14589844774145
C        -1.89452083016873    1.12035027652337    1.88963815955873
C        -3.15751335605159    1.67107723837544    1.98031807711695
C        -4.18868851553644    1.08815257990865    1.25381907694211
C        -3.90336985190616   -0.01351077198920    0.47507486846156
H        -4.69204253866976   -0.47828468610628   -0.09190057238440
H        -3.33188990429619    2.53214616480383    2.60475804174571
H        -1.05536340244503    1.54492615578991    2.41740406961794
Ir        0.42150000000000   -0.81650000000000    0.91330000000000
H         0.87260000000000   -2.23030000000000    1.54050000000000
B         0.49685817302584    0.42641059959569   -0.76972734500536
O         0.15618673167791   -0.03010841631727   -2.03510907344128
C         0.00479214615226    1.09082991229897   -2.92348678814297
C         0.48841741368985    0.73767244613785   -4.32629695989904
H         1.50374320005172    0.35745735510839   -4.30620888757283
H         0.44327040714114    1.61674876016190   -4.96426707304397
H        -0.15437031666438   -0.03209856814355   -4.74530468721923
C        -1.49758379399131    1.40282852989157   -2.96824317807981
H        -1.71729217957406    2.21247750926237   -3.65772042757466
H        -2.02731316741566    0.50841870535908   -3.28925244997806
H        -1.84637217060356    1.66087380665147   -1.97047922006088
C         0.82353410266941    2.20244348895971   -2.19820241310687
O         0.76066075806483    1.77709257367167   -0.82625511731720
C         2.30303911859791    2.19356258964979   -2.59786845760349
H         2.70588825194046    1.19661301748037   -2.44144351354709
H         2.43965972780577    2.50811819583385   -3.62869787647082
H         2.84495539156102    2.87352348607102   -1.94516510928076
C         0.26860398902279    3.61705662148313   -2.33339041005473
H        -0.73046403214023    3.69203428617877   -1.91744920285924
H         0.91354098266216    4.30001483802652   -1.78706775849566
H         0.25097762441146    3.91254317952582   -3.37919439537039
B         1.57244157940733    0.62103085011437    1.86418199477949
O         2.92814928799470    0.57597754830290    2.12606686361458
C         3.36461994133199    1.88941000520888    2.51198934587899
C         4.53303633862441    1.79245069256140    3.48529407177623
H         4.28472203857219    1.15954132799072    4.33029468022442
H         5.38562847473085    1.35537777042049    2.97295500848416
H         4.80507943292911    2.78261359511535    3.83940114318811
C         3.80383930500753    2.58687585230097    1.22036515325780
H         4.20092191668258    3.57908462932066    1.41190326465823
H         4.56704111026458    1.97817143728622    0.74323816930595
H         2.95355587354760    2.63231064151462    0.54424633255711
C         2.05566368939572    2.50566064037156    3.09025975265156
O         1.04601492666144    1.79986819721523    2.35041387277734
C         1.89652872450762    4.00733643874847    2.88565251681818
H         1.86283721526903    4.24839857320008    1.82921869025844
H         0.96395467519011    4.33220741745169    3.33872861780337
H         2.72039244339588    4.53576369001498    3.35674291901399
C         1.84463985591464    2.15380574428418    4.56756746148977
H         1.94754629907365    1.08014226647940    4.70190152413606
H         2.54881331084430    2.67977162344501    5.20433396228990
H         0.83225523907864    2.43038882485743    4.85231125637704
B         2.27819999999998   -1.33090000000001    0.17410000000000
O         2.90307227056718   -2.55013689182542    0.39803356651370
C         4.25895652345148   -2.48152599036342   -0.07874547009402
C         5.11414123885894   -2.05978116331132    1.12006513935880
H         4.75156951145056   -1.10334338315103    1.48858261223636
H         4.98363140784420   -2.79318445684605    1.91127772393563
H         6.16613394993880   -2.00009720713294    0.85872805239505
C         4.71296453916565   -3.84328373318184   -0.59163264660465
H         4.74544283194782   -4.54090189102400    0.24014155792284
H         5.70657603560548   -3.76213721342348   -1.02302268807227
H         4.02696564557763   -4.23254820110891   -1.33561647314444
C         4.16204217162995   -1.36064938690327   -1.15707314218706
O         3.06235890704416   -0.57340431214548   -0.67079126501187
C         5.40628063654280   -0.49340547643053   -1.31101953151332
H         6.25489977505497   -1.10631289621857   -1.60112755710136
H         5.22867631164063    0.25066535090070   -2.08242157657553
H         5.63029395526947    0.02357099904883   -0.38517183022852
C         3.73959222110353   -1.90368780808271   -2.52887776441674
H         2.84861867527985   -2.51634386283565   -2.41886087944527
H         3.48565159251709   -1.06404277056591   -3.17102688853962
H         4.53598071783453   -2.47644571880391   -2.99360191665003
H        -3.39019894980453   -3.98057097853742   -2.56956054811372
H        -5.19078561476915    1.48679525179840    1.29574465020649
C         0.23589999999999   -1.68140000000003    2.96029999999998
O        -0.92016677173510   -2.24200893649736    3.40963362913021
C         1.14731561334868   -1.67949233934366    3.98804309956231
C        -0.75727428774345   -2.55391973986096    4.72532171604302
C         0.50132117954362   -2.21697132072712    5.12538070547821
H         2.15951416648031   -1.33931385818529    3.91078673155033
C        -1.88435226072575   -3.17333236364297    5.47374794594994
H         0.92059606405887   -2.35883201838757    6.10165657903973
H        -2.64576968469203   -2.43268412824199    5.71934820230447
H        -1.50354378432830   -3.60212954793079    6.39662131526211
H        -2.34968807512072   -3.95585051723815    4.87743743764227
96
 energy: -138.361096410790 gnorm: 0.039155303584 xtb: 6.4.1 (1a32961)
N        -0.94796761750664   -2.09609820366406   -0.26286707365622
C        -2.22404831021665   -1.68718235027442   -0.36532998229795
C        -3.12867214073782   -2.35551294252607   -1.19892334157679
C        -2.71286026615345   -3.45469234720498   -1.91775638294519
C        -1.39205666929156   -3.87447130810102   -1.78849453438069
C        -0.55780536497611   -3.16043651766648   -0.95503020302572
H         0.47510653253433   -3.44771438684674   -0.82000792019720
H        -1.02521167496661   -4.73445580860717   -2.32302079506345
H        -4.14740331296371   -2.01857430033518   -1.28904126719763
C        -2.59079128326480   -0.52399736673686    0.43413280257600
N        -1.60242183670555    0.05258305753007    1.14569158603878
C        -1.88888011649143    1.11534973798190    1.88905672365781
C        -3.15239189493509    1.66389165257908    1.98211428414834
C        -4.18424093938828    1.07918086044900    1.25560477748941
C        -3.89596111117531   -0.01979804441380    0.47560213263800
H        -4.68258223862725   -0.48597206369109   -0.09266756781284
H        -3.32796405117688    2.52262113898103    2.60820994886677
H        -1.05281440765671    1.54161445240738    2.42087294355363
Ir        0.42149999999999   -0.81650000000000    0.91330000000001
H         0.87260000000000   -2.23030000000000    1.54050000000000
B         0.48561895146552    0.43649463102761   -0.75213810790326
O         0.13454027620808   -0.02442557277468   -2.01288978931149
C        -0.00488697680798    1.08887191617098   -2.90680246068638
C         0.48512942869454    0.72669297885626   -4.30588926991025
H         1.49799293907677    0.34089260801250   -4.28010186098535
H         0.44666918087745    1.60587634043950   -4.94337091089217
H        -0.16069653893451   -0.04017626337051   -4.72494313462389
C        -1.50610829846284    1.40905292378123   -2.96665282958457
H        -1.71177529231635    2.21686616806304   -3.66186105129706
H        -2.03685645655351    0.51618199522014   -3.28937237672231
H        -1.86238706570798    1.67294404163981   -1.97330154155927
C         0.81464777033975    2.20273710901556   -2.18553808273847
O         0.76141288432526    1.78266865518331   -0.81510713322897
C         2.29242839952471    2.19676486950083   -2.59499946495092
H         2.69831606419394    1.20209233773322   -2.43281098928629
H         2.41909088330641    2.50376357711322   -3.62888673286160
H         2.83522688339550    2.88407046398615   -1.95108545384470
C         0.25735463125039    3.61677686625792   -2.32645601765483
H        -0.73915110141654    3.69468409010035   -1.90550415385049
H         0.90602162669940    4.30373708793102   -1.78992779540907
H         0.23416785465968    3.90068809523163   -3.37500607910803
B         1.57489560089767    0.62239538794551    1.87137491254164
O         2.93092115219182    0.58257056758233    2.11601170919733
C         3.36577793041448    1.89148538467424    2.51276159466285
C         4.53378446631371    1.79273414058290    3.48798615706195
H         4.28772018186562    1.15411262621652    4.32908815504621
H         5.38877995833909    1.36321773449033    2.97362679094093
H         4.79855428274691    2.78284884385120    3.84672813022140
C         3.80836305513733    2.59960162631334    1.22707660014097
H         4.20115974995927    3.59115000207381    1.42754657701330
H         4.57518308167262    1.99614793963919    0.74937680837660
H         2.95947120408848    2.64555275915020    0.54974601001628
C         2.05719751494422    2.50605988266294    3.09365859967318
O         1.04638042132867    1.79321273786264    2.36568636440053
C         1.89557617090593    4.00770348012334    2.88393439407939
H         1.85320461518287    4.24559559262704    1.82719616881555
H         0.96724308056718    4.33379040778628    3.34434708565822
H         2.72442908919264    4.53493753391261    3.34675603430986
C         1.85665415193704    2.16417727339183    4.57583824740899
H         1.96238947490476    1.09170272113061    4.71487245239304
H         2.56508200230439    2.69616783829545    5.20205650062435
H         0.84593780262174    2.44124641520414    4.86491515803977
B         2.27819999999996   -1.33090000000003    0.17410000000001
O         2.90490331224392   -2.54385173828337    0.40708378825554
C         4.25465031726541   -2.48052532804910   -0.07867027596387
C         5.11961969515838   -2.06010240519459    1.11462534029245
H         4.75797152094137   -1.10421698662552    1.48492335997234
H         4.99353979738205   -2.79421599809598    1.90551057172350
H         6.16880800243488   -2.00060181871862    0.84478859162507
C         4.70509157359735   -3.84394215685080   -0.59309200812865
H         4.74176756634776   -4.53987395524498    0.23955739107996
H         5.69619849466976   -3.75970533589111   -1.02852335595457
H         4.01608356966098   -4.23397405091277   -1.33359498548864
C         4.15797973456340   -1.36101255920527   -1.15828330139890
O         3.05300181220872   -0.57847599947778   -0.68058350073436
C         5.40227872893625   -0.49200318369119   -1.30759545577124
H         6.25049714229292   -1.10839302566091   -1.59027274240643
H         5.22851250232414    0.24809080190412   -2.08334558740816
H         5.62133533933502    0.02837392735270   -0.38274285682092
C         3.74817199507023   -1.90772008826567   -2.53349800387938
H         2.85783413507148   -2.52161257869759   -2.42883037990102
H         3.49929318569240   -1.06950086627128   -3.17918343420355
H         4.55100377988392   -2.47906706598287   -2.98761739032698
H        -3.39752293308145   -3.97866212949855   -2.56582254485880
H        -5.18709217986534    1.47472675905901    1.29908165706186
C         0.23589999999999   -1.68140000000005    2.96029999999997
O        -0.92373665838370   -2.24202257478873    3.40218472234782
C         1.13794954432783   -1.67250273998273    3.99588759744339
C        -0.77151737519976   -2.54726038422692    4.72086348209967
C         0.48259102596052   -2.20605588396682    5.13039451469645
H         2.14976327075695   -1.32966172748879    3.92658438602767
C        -1.90419557120709   -3.16606146329858    5.46270224168432
H         0.89379712622935   -2.34192699142965    6.11105292540475
H        -2.66759258278020   -2.42509130839312    5.70079265805513
H        -1.52945422410966   -3.59219071517423    6.38924054290298
H        -2.36403632675376   -3.95010902014706    4.86438591434966
96
 energy: -138.361878059265 gnorm: 0.039690320566 xtb: 6.4.1 (1a32961)
N        -0.93657877629719   -2.09841865382041   -0.27375581190028
C        -2.21443225044766   -1.68919415981972   -0.36769268745524
C        -3.12541336319783   -2.35652179685062   -1.19699548000585
C        -2.71672383320849   -3.45548269370529   -1.91964584930476
C        -1.39336611481498   -3.87517355568624   -1.80049653632955
C        -0.55239287604600   -3.16102303646701   -0.97252352886616
H         0.48224559867225   -3.45005517073425   -0.84959500562295
H        -1.03158442856649   -4.73524097785863   -2.33862066355595
H        -4.14443724551576   -2.01718838578014   -1.27813008488671
C        -2.57888892770293   -0.53003754201098    0.43507582138418
N        -1.59072360698160    0.04553086622218    1.15048948846178
C        -1.88035385539947    1.10719983651344    1.89578563244919
C        -3.14502374449758    1.65328977353804    1.99018747199258
C        -4.17739465877012    1.06753100897894    1.26211901892506
C        -3.88562210553947   -0.02736597250843    0.47836813561192
H        -4.67000376292379   -0.49513649257878   -0.09213154757423
H        -3.32203390128835    2.50987746815484    2.61868019341987
H        -1.04697906032636    1.53718733230309    2.42997203928570
Ir        0.42149999999999   -0.81649999999999    0.91330000000001
H         0.87260000000000   -2.23030000000000    1.54049999999999
B         0.48132866182780    0.45092518684679   -0.72862846287109
O         0.09966815024595   -0.01368198268272   -1.97977072755974
C        -0.02469999737172    1.08885461843630   -2.88114693078232
C         0.47581812048027    0.70712130745539   -4.27270404438406
H         1.48398609012172    0.30899796750848   -4.23178449650154
H         0.45415567618460    1.58186895960052   -4.91756061672270
H        -0.17499340546517   -0.05651115920157   -4.69069338346400
C        -1.52379643209564    1.42174504821875   -2.96342814977409
H        -1.71039092168363    2.22642875781709   -3.66784761863652
H        -2.05726016409024    0.53104165479151   -3.28823893823821
H        -1.89399696115439    1.69648365878727   -1.97767534802940
C         0.79999488241354    2.20674950706137   -2.16788928187740
O         0.76267911414304    1.79341169975014   -0.79866602965166
C         2.27530997629046    2.20487850749242   -2.59116439055556
H         2.68868691249572    1.21470180529290   -2.41819930256913
H         2.38861320831391    2.49766037686926   -3.63080672372170
H         2.81936339756703    2.90578052242685   -1.96236462279131
C         0.23644217729850    3.61905874933787   -2.31435114669697
H        -0.75525144736874    3.69933103410688   -1.88163176073710
H         0.89074814091651    4.31449458555053   -1.79474940515884
H         0.19872691626074    3.88902717060897   -3.36655193814257
B         1.57887086047252    0.62683408775946    1.87480396860716
O         2.93648082933411    0.59455567670218    2.09779642931386
C         3.36932814997098    1.89732836006981    2.51252121731030
C         4.53619160839615    1.79153595294760    3.49067514356770
H         4.29305373433645    1.14072595699954    4.32384326823817
H         5.39682082413506    1.37563198975300    2.97348080638648
H         4.79154532327290    2.77984373432615    3.86278790610088
C         3.81790437198687    2.62316175022719    1.23710144223127
H         4.20252715492691    3.61489959145445    1.45353593403995
H         4.59352920757316    2.03068673252147    0.75891823084675
H         2.97392659892091    2.67266356776980    0.55375872155370
C         2.06061176251528    2.50718154838597    3.10175491017573
O         1.04628408100236    1.78381439594683    2.39192023258340
C         1.89179666227526    4.00804234257104    2.88163554852119
H         1.83193221806589    4.23858504017270    1.82349787971423
H         0.97094821734134    4.33757562680412    3.35569370420819
H         2.72886920094108    4.53897065158099    3.32670587594047