108
 energy: -154.749311820078 gnorm: 0.000411647283 xtb: 6.4.0 (f63f532)
N        -0.96509999999998   -2.11530000000000   -0.24089999999995
C        -2.24699999999996   -1.69840000000004   -0.36220000000001
C        -3.14040000000005   -2.36820000000003   -1.21199999999998
C        -2.70220000000000   -3.47560000000003   -1.93050000000002
C        -1.37780000000009   -3.89880000000000   -1.78760000000003
C        -0.54289999999999   -3.18670000000003   -0.93509999999990
H         0.49810000000000   -3.45630000000000   -0.78940000000000
H        -0.99570000000001   -4.76030000000008   -2.32770000000002
H        -4.16500000000001   -2.02890000000001   -1.31830000000000
C        -2.62130000000002   -0.50949999999999    0.44100000000000
N        -1.62600000000003    0.07330000000002    1.16019999999995
C        -1.89679999999996    1.15239999999995    1.91689999999996
C        -3.17230000000002    1.70330000000004    1.99650000000002
C        -4.20510000000003    1.11739999999997    1.26270000000009
C        -3.92609999999996    0.00250000000002    0.47819999999992
H        -4.71960000000001   -0.46420000000000   -0.09519999999997
H        -3.34630000000000    2.57510000000001    2.62070000000000
H        -1.04450000000000    1.57420000000000    2.43690000000001
Ir        0.42150000000000   -0.81650000000000    0.91330000000000
H         0.87260000000000   -2.23030000000000    1.54050000000000
B         0.50670000000000    0.41559999999996   -0.81539999999999
O         0.19500000000000   -0.04699999999997   -2.09150000000006
C         0.00650000000002    1.10039999999994   -2.95429999999992
C         0.49019999999997    0.74740000000016   -4.35780000000004
H         1.51609999999997    0.37380000000000   -4.33700000000000
H         0.44730000000001    1.62239999999990   -5.01670000000010
H        -0.14739999999999   -0.03389999999995   -4.78430000000002
C        -1.50119999999993    1.39559999999976   -2.96670000000007
H        -1.75369999999998    2.21459999999996   -3.64850000000000
H        -2.03199999999994    0.49450000000001   -3.28929999999996
H        -1.85170000000001    1.65210000000000   -1.96219999999996
C         0.84230000000002    2.20669999999995   -2.22040000000006
O         0.75200000000000    1.78259999999998   -0.83690000000000
C         2.32930000000000    2.18619999999983   -2.59899999999996
H         2.74130000000001    1.18499999999993   -2.45750000000000
H         2.48870000000000    2.51300000000002   -3.63179999999998
H         2.87200000000001    2.86270000000003   -1.93199999999996
C         0.28440000000000    3.62290000000002   -2.33660000000000
H        -0.72650000000003    3.69039999999998   -1.92910000000000
H         0.92130000000004    4.31480000000003   -1.77610000000003
H         0.26429999999999    3.94809999999998   -3.38319999999996
B         1.56299999999999    0.60960000000003    1.84840000000000
O         2.92780000000001    0.55230000000000    2.15020000000000
C         3.36329999999997    1.88659999999994    2.50260000000000
C         4.53140000000000    1.78590000000002    3.47740000000003
H         4.27910000000000    1.16090000000002    4.33690000000000
H         5.39390000000004    1.33790000000001    2.97340000000000
H         4.82390000000000    2.77870000000000    3.83820000000000
C         3.79700000000000    2.56850000000001    1.19669999999991
H         4.20020000000001    3.57090000000000    1.37680000000001
H         4.56740000000000    1.95560000000000    0.72110000000002
H         2.95239999999998    2.63260000000000    0.50539999999999
C         2.05040000000002    2.50090000000006    3.09319999999997
O         1.03750000000000    1.81619999999992    2.31910000000005
C         1.89100000000001    4.00450000000001    2.88649999999983
H         1.87290000000000    4.25440000000001    1.82409999999997
H         0.94940000000001    4.34260000000000    3.33169999999999
H         2.71080000000005    4.55150000000000    3.36630000000004
C         1.82470000000006    2.13199999999990    4.56520000000001
H         1.92610000000001    1.05330000000001    4.71320000000000
H         2.52609999999998    2.65280000000004    5.22540000000002
H         0.80629999999997    2.41579999999997    4.84899999999999
B         2.27819999999999   -1.33089999999997    0.17409999999999
O         2.89459999999997   -2.57739999999998    0.38450000000000
C         4.26930000000002   -2.48200000000002   -0.07209999999991
C         5.10900000000003   -2.05380000000003    1.14010000000009
H         4.76350000000000   -1.08739999999998    1.51750000000001
H         4.98049999999999   -2.79470000000004    1.93590000000012
H         6.17419999999997   -1.99290000000000    0.89299999999999
C         4.71950000000004   -3.84659999999995   -0.58470000000017
H         4.75280000000001   -4.56130000000007    0.24419999999999
H         5.72330000000010   -3.78369999999999   -1.02009999999997
H         4.03500000000001   -4.23599999999994   -1.34170000000000
C         4.16440000000001   -1.36220000000005   -1.16299999999999
O         3.08520000000003   -0.55029999999999   -0.65400000000000
C         5.40720000000000   -0.48869999999998   -1.31550000000001
H         6.27320000000002   -1.09010000000001   -1.61529999999999
H         5.23300000000000    0.26930000000001   -2.08589999999997
H         5.64270000000000    0.02650000000000   -0.38240000000001
C         3.71799999999996   -1.89829999999998   -2.53110000000001
H         2.82530000000001   -2.52160000000003   -2.42739999999999
H         3.46090000000000   -1.05249999999996   -3.17549999999995
H         4.50569999999996   -2.48289999999997   -3.01789999999998
H        -3.38500000000002   -4.00130000000006   -2.59309999999997
H        -5.21399999999998    1.52080000000001    1.29960000000000
C         0.23590000000007   -1.68140000000000    2.96029999999998
C        -1.03870713072108   -2.05299816648123    3.38746418101259
C         1.24079264463168   -1.70490532153517    3.92532228070155
C        -1.25090415473831   -2.34511598688262    4.72312975782967
H        -1.86978721165707   -2.13109018164593    2.69952115963088
C         0.95056110619771   -2.06082870166368    5.23730693564254
H         2.26057642063157   -1.47994302581730    3.64382862693602
N        -0.28771976847745   -2.36564734604708    5.64146684968519
H        -2.23815179755230   -2.60825662902624    5.08823587897753
C         2.05133929649807   -2.20658555176346    6.25923933799445
C         2.88885348681804   -3.40830172321091    5.89765776021228
H         1.59411371691720   -2.34418202515553    7.24265807098952
H         2.67302019167760   -1.30691821118062    6.26656362165879
C         4.10860051631988   -3.26346832538465    5.24165970625567
C         2.42698884183621   -4.69225933291691    6.17923796628979
C         4.85700202815655   -4.37708485502693    4.88808610207447
H         4.47691728277090   -2.27277247152227    5.00603155620078
C         3.17212044203547   -5.80597005004380    5.82071071991042
H         1.47336822177289   -4.81319747927732    6.67876103031851
C         4.39112580232858   -5.65082628096752    5.17697196375912
H         5.80768139177780   -4.24892338891425    4.38564205339333
H         2.80104143713426   -6.79778047898400    6.04619316512625
H         4.97482264903091   -6.51994914347618    4.90089447407587
