      -----------------------------------------------------------      
     |                   =====================                   |     
     |                           x T B                           |     
     |                   =====================                   |     
     |                         S. Grimme                         |     
     |          Mulliken Center for Theoretical Chemistry        |     
     |                    University of Bonn                     |     
      -----------------------------------------------------------      

   * xtb version 6.4.0 (f63f532) compiled by 'knkr256@seskscpg008.prim.scp' on 2021-04-09

   xtb is free software: you can redistribute it and/or modify it under
   the terms of the GNU Lesser General Public License as published by
   the Free Software Foundation, either version 3 of the License, or
   (at your option) any later version.
   
   xtb is distributed in the hope that it will be useful,
   but WITHOUT ANY WARRANTY; without even the implied warranty of
   MERCHANTABILITY or FITNESS FOR A PARTICULAR PURPOSE.  See the
   GNU Lesser General Public License for more details.
   
   Cite this work as:
   * C. Bannwarth, E. Caldeweyher, S. Ehlert, A. Hansen, P. Pracht,
     J. Seibert, S. Spicher, S. Grimme, WIREs Comput. Mol. Sci., 2020, 11,
     e01493. DOI: 10.1002/wcms.1493
   
   for GFN2-xTB:
   * C. Bannwarth, S. Ehlert and S. Grimme., J. Chem. Theory Comput., 2019,
     15, 1652-1671. DOI: 10.1021/acs.jctc.8b01176
   for GFN1-xTB:
   * S. Grimme, C. Bannwarth, P. Shushkov, J. Chem. Theory Comput., 2017,
     13, 1989-2009. DOI: 10.1021/acs.jctc.7b00118
   for GFN0-xTB:
   * P. Pracht, E. Caldeweyher, S. Ehlert, S. Grimme, ChemRxiv, 2019, preprint.
     DOI: 10.26434/chemrxiv.8326202.v1
   for GFN-FF:
   * S. Spicher and S. Grimme, Angew. Chem. Int. Ed., 2020, 59, 15665-15673.
     DOI: 10.1002/anie.202004239
   
   for DFT-D4:
   * E. Caldeweyher, C. Bannwarth and S. Grimme, J. Chem. Phys., 2017,
     147, 034112. DOI: 10.1063/1.4993215
   * E. Caldeweyher, S. Ehlert, A. Hansen, H. Neugebauer, S. Spicher,
     C. Bannwarth and S. Grimme, J. Chem. Phys., 2019, 150, 154122.
     DOI: 10.1063/1.5090222
   * E. Caldeweyher, J.-M. Mewes, S. Ehlert and S. Grimme, Phys. Chem. Chem. Phys.
     2020, 22, 8499-8512. DOI: 10.1039/D0CP00502A
   
   for sTDA-xTB:
   * S. Grimme and C. Bannwarth, J. Chem. Phys., 2016, 145, 054103.
     DOI: 10.1063/1.4959605
   
   in the mass-spec context:
   * V. Asgeirsson, C. Bauer and S. Grimme, Chem. Sci., 2017, 8, 4879.
     DOI: 10.1039/c7sc00601b
   * J. Koopman and S. Grimme, ACS Omega 2019, 4, 12, 15120-15133.
     DOI: 10.1021/acsomega.9b02011
   
   for metadynamics refer to:
   * S. Grimme, J. Chem. Theory Comput., 2019, 155, 2847-2862
     DOI: 10.1021/acs.jctc.9b00143
   
   for SPH calculations refer to:
   * S. Spicher and S. Grimme, J. Chem. Theory Comput., 2021, 17, 1701-1714
     DOI: 10.1021/acs.jctc.0c01306
   
   with help from (in alphabetical order)
   P. Atkinson, C. Bannwarth, F. Bohle, G. Brandenburg, E. Caldeweyher
   M. Checinski, S. Dohm, S. Ehlert, S. Ehrlich, I. Gerasimov, J. Koopman
   C. Lavinge, S. Lehtola, F. März, M. Müller, F. Musil, H. Neugebauer
   J. Pisarek, P. Pracht, J. Seibert, P. Shushkov, S. Spicher, M. Stahn
   T. Strunk, J. Stückrath, T. Rose, and J. Unsleber
   
 * started run on 2021/10/08 at 07:19:14.670     

           -------------------------------------------------
          |                Calculation Setup                |
           -------------------------------------------------

          program call               : xtb xtbopt.xyz --sp --alpb thf -P 6
          hostname                   : seskscpg010.prim.scp
          coordinate file            : xtbopt.xyz
          omp threads                :                     6
          number of atoms            :                   108
          number of electrons        :                   284
          charge                     :                     0
          spin                       :                   0.0
          first test random number   :      0.22155844831488

   ID    Z sym.   atoms
    1    7 N      1, 11, 93
    2    6 C      2-6, 10, 12-15, 23, 24, 28, 32, 34, 38, 44, 45, 49, 53, 55,
                  59, 65, 66, 70, 74, 76, 80, 86-89, 91, 95, 96, 99-101, 103,
                  105
    3    1 H      7-9, 16-18, 20, 25-27, 29-31, 35-37, 39-41, 46-48, 50-52,
                  56-58, 60-62, 67-69, 71-73, 77-79, 81-85, 90, 92, 94, 97,
                  98, 102, 104, 106-108
    4   77 Ir     19
    5    5 B      21, 42, 63
    6    8 O      22, 33, 43, 54, 64, 75

molecular fragmentation (1/2 indicates fragments):
111111111111111111111111111111111111111111111111111111111111111111111111
111111111111122222222222222222222222
# atoms in fragment 1/2:    85    23
 fragment masses (1/2) :      730.32      168.21
CMA distance (Bohr)    :  11.511
constraining FC (au)   :  0.0500

           -------------------------------------------------
          |                 G F N 2 - x T B                 |
           -------------------------------------------------

        Reference                      10.1021/acs.jctc.8b01176
      * Hamiltonian:
        H0-scaling (s, p, d)           1.850000    2.230000    2.230000
        zeta-weighting                 0.500000
      * Dispersion:
        s8                             2.700000
        a1                             0.520000
        a2                             5.000000
        s9                             5.000000
      * Repulsion:
        kExp                           1.500000    1.000000
        rExp                           1.000000
      * Coulomb:
        alpha                          2.000000
        third order                    shell-resolved
        anisotropic                    true
        a3                             3.000000
        a5                             4.000000
        cn-shift                       1.200000
        cn-exp                         4.000000
        max-rad                        5.000000

      * Solvation model:               ALPB
        Solvent                        thf
        Parameter file                 internal GFN2-xTB/ALPB
        Dielectric constant                7.6000E+00
        Reference state                gsolv [1 M gas/solution]
        Free energy shift                  5.3248E-03 Eh       3.3414E+00 kcal/mol
        Temperature                        2.9815E+02 K
        Density                            8.8300E-01 kg/L
        Solvent mass                       7.2106E+01 g/mol
        Interaction kernel             P16
        Born radius scaling (c1)           1.7311E+00
        Born radii integrator          GBOBC
        Born offset                        0.0000E+00 a0       0.0000E+00 AA
        H-bond correction              true
        Ion screening                  false
        Surface tension                    1.0000E-05 Eh       1.5569E+01 dyn/cm
        Grid points                               230 per atom
q/qsh data taken from xtbrestart
CAMM data taken from xtbrestart

          ...................................................
          :                      SETUP                      :
          :.................................................:
          :  # basis functions                 273          :
          :  # atomic orbitals                 272          :
          :  # shells                          162          :
          :  # electrons                       284          :
          :  max. iterations                   250          :
          :  Hamiltonian                  GFN2-xTB          :
          :  restarted?                       true          :
          :  GBSA solvation                   true          :
          :  PC potential                    false          :
          :  electronic temp.          300.0000000     K    :
          :  accuracy                    1.0000000          :
          :  -> integral cutoff          0.2500000E+02      :
          :  -> integral neglect         0.1000000E-07      :
          :  -> SCF convergence          0.1000000E-05 Eh   :
          :  -> wf. convergence          0.1000000E-03 e    :
          :  Broyden damping             0.4000000          :
          ...................................................

 iter      E             dE          RMSdq      gap      omega  full diag
   1   -156.8627195 -0.156863E+03  0.205E-05    0.90       0.0  T
   2   -156.8627195  0.150067E-09  0.423E-05    0.90     227.2  T
   3   -156.8627195 -0.176215E-09  0.101E-05    0.90     953.8  T

   *** convergence criteria satisfied after 3 iterations ***

         #    Occupation            Energy/Eh            Energy/eV
      -------------------------------------------------------------
         1        2.0000           -0.6768247             -18.4173
       ...           ...                  ...                  ...
       136        2.0000           -0.3618002              -9.8451
       137        2.0000           -0.3466850              -9.4338
       138        2.0000           -0.3350055              -9.1160
       139        2.0000           -0.3250937              -8.8462
       140        2.0000           -0.3205925              -8.7238
       141        2.0000           -0.3140271              -8.5451
       142        2.0000           -0.3111995              -8.4682 (HOMO)
       143                         -0.2779807              -7.5642 (LUMO)
       144                         -0.2499146              -6.8005
       145                         -0.2475020              -6.7349
       146                         -0.2295636              -6.2467
       147                         -0.2181667              -5.9366
       ...                                ...                  ...
       272                          3.6914629             100.4498
      -------------------------------------------------------------
                  HL-Gap            0.0332188 Eh            0.9039 eV
             Fermi-level           -0.2945665 Eh           -8.0156 eV

 SCC (total)                   0 d,  0 h,  0 min,  0.119 sec
 SCC setup                      ...        0 min,  0.003 sec (  2.518%)
 Dispersion                     ...        0 min,  0.003 sec (  2.176%)
 classical contributions        ...        0 min,  0.000 sec (  0.152%)
 integral evaluation            ...        0 min,  0.034 sec ( 28.117%)
 iterations                     ...        0 min,  0.035 sec ( 29.185%)
 molecular gradient             ...        0 min,  0.044 sec ( 37.279%)
 printout                       ...        0 min,  0.001 sec (  0.513%)

         :::::::::::::::::::::::::::::::::::::::::::::::::::::
         ::                     SUMMARY                     ::
         :::::::::::::::::::::::::::::::::::::::::::::::::::::
         :: total energy            -154.762165202181 Eh    ::
         :: total w/o Gsasa/hb      -154.716903061244 Eh    ::
         :: gradient norm              0.033151532567 Eh/a0 ::
         :: HOMO-LUMO gap              0.903928324798 eV    ::
         ::.................................................::
         :: SCC energy              -156.862719459272 Eh    ::
         :: -> isotropic ES            0.244510875585 Eh    ::
         :: -> anisotropic ES          0.015476912490 Eh    ::
         :: -> anisotropic XC          0.061778351144 Eh    ::
         :: -> dispersion             -0.148214820545 Eh    ::
         :: -> Gsolv                  -0.055451654445 Eh    ::
         ::    -> Gelec               -0.010189513508 Eh    ::
         ::    -> Gsasa               -0.047980222008 Eh    ::
         ::    -> Ghb                 -0.002606734373 Eh    ::
         ::    -> Gshift               0.005324815444 Eh    ::
         :: repulsion energy           2.091806312540 Eh    ::
         :: add. restraining           0.000000000000 Eh    ::
         :: total charge               0.000000000000 e     ::
         :::::::::::::::::::::::::::::::::::::::::::::::::::::

           -------------------------------------------------
          |                Property Printout                |
           -------------------------------------------------

    * Orbital Energies and Occupations

         #    Occupation            Energy/Eh            Energy/eV
      -------------------------------------------------------------
         1        2.0000           -0.6768247             -18.4173
       ...           ...                  ...                  ...
       130        2.0000           -0.3909053             -10.6371
       131        2.0000           -0.3898698             -10.6089
       132        2.0000           -0.3886567             -10.5759
       133        2.0000           -0.3843932             -10.4599
       134        2.0000           -0.3836574             -10.4398
       135        2.0000           -0.3830650             -10.4237
       136        2.0000           -0.3618002              -9.8451
       137        2.0000           -0.3466850              -9.4338
       138        2.0000           -0.3350055              -9.1160
       139        2.0000           -0.3250937              -8.8462
       140        2.0000           -0.3205925              -8.7238
       141        2.0000           -0.3140271              -8.5451
       142        2.0000           -0.3111995              -8.4682 (HOMO)
       143                         -0.2779807              -7.5642 (LUMO)
       144                         -0.2499146              -6.8005
       145                         -0.2475020              -6.7349
       146                         -0.2295636              -6.2467
       147                         -0.2181667              -5.9366
       148                         -0.2110293              -5.7424
       149                         -0.2074800              -5.6458
       150                         -0.2057572              -5.5989
       151                         -0.1913838              -5.2078
       152                         -0.1506727              -4.1000
       153                         -0.1286036              -3.4995
       ...                                ...                  ...
       272                          3.6914629             100.4498
      -------------------------------------------------------------
                  HL-Gap            0.0332188 Eh            0.9039 eV
             Fermi-level           -0.2945665 Eh           -8.0156 eV

     #   Z          covCN         q      C6AA      α(0)
     1   7 N        2.552    -0.121    23.670     7.225
     2   6 C        2.954     0.078    26.265     8.406
     3   6 C        2.918    -0.043    29.061     8.840
     4   6 C        2.924    -0.022    28.557     8.763
     5   6 C        2.915    -0.044    29.082     8.843
     6   6 C        2.892     0.048    26.911     8.505
     7   1 H        0.926     0.052     2.293     2.368
     8   1 H        0.926     0.057     2.238     2.340
     9   1 H        0.926     0.048     2.347     2.396
    10   6 C        2.953     0.075    26.324     8.415
    11   7 N        2.559    -0.126    23.765     7.240
    12   6 C        2.890     0.042    27.052     8.527
    13   6 C        2.915    -0.045    29.110     8.847
    14   6 C        2.922    -0.024    28.592     8.769
    15   6 C        2.919    -0.045    29.110     8.848
    16   1 H        0.926     0.047     2.364     2.404
    17   1 H        0.926     0.052     2.297     2.370
    18   1 H        0.926     0.074     2.045     2.236
    19  77 Ir       5.946    -0.154   387.990    36.426
    20   1 H        0.977     0.079     1.989     2.204
    21   5 B        2.625     0.403    16.045     6.771
    22   8 O        1.638    -0.411    21.068     6.196
    23   6 C        3.836     0.131    18.439     6.109
    24   6 C        3.755    -0.122    22.887     6.821
    25   1 H        0.925     0.054     2.274     2.358
    26   1 H        0.925     0.045     2.380     2.412
    27   1 H        0.925     0.051     2.311     2.377
    28   6 C        3.754    -0.109    22.635     6.784
    29   1 H        0.925     0.048     2.349     2.397
    30   1 H        0.925     0.041     2.442     2.444
    31   1 H        0.925     0.028     2.610     2.527
    32   6 C        3.839     0.131    18.436     6.108
    33   8 O        1.637    -0.402    20.893     6.170
    34   6 C        3.755    -0.119    22.842     6.815
    35   1 H        0.925     0.047     2.359     2.402
    36   1 H        0.925     0.047     2.353     2.399
    37   1 H        0.925     0.050     2.318     2.381
    38   6 C        3.754    -0.120    22.848     6.816
    39   1 H        0.925     0.047     2.354     2.399
    40   1 H        0.925     0.053     2.280     2.361
    41   1 H        0.925     0.046     2.376     2.411
    42   5 B        2.622     0.404    16.052     6.776
    43   8 O        1.637    -0.380    20.471     6.107
    44   6 C        3.835     0.128    18.476     6.115
    45   6 C        3.755    -0.125    22.950     6.831
    46   1 H        0.925     0.052     2.300     2.372
    47   1 H        0.925     0.058     2.222     2.331
    48   1 H        0.925     0.050     2.319     2.382
    49   6 C        3.755    -0.123    22.908     6.825
    50   1 H        0.925     0.049     2.331     2.388
    51   1 H        0.925     0.046     2.376     2.410
    52   1 H        0.925     0.054     2.275     2.359
    53   6 C        3.831     0.128    18.482     6.117
    54   8 O        1.637    -0.385    20.576     6.123
    55   6 C        3.755    -0.124    22.933     6.828
    56   1 H        0.925     0.054     2.276     2.359
    57   1 H        0.925     0.054     2.272     2.357
    58   1 H        0.925     0.049     2.332     2.388
    59   6 C        3.755    -0.122    22.886     6.821
    60   1 H        0.925     0.041     2.436     2.441
    61   1 H        0.925     0.053     2.279     2.361
    62   1 H        0.925     0.050     2.314     2.379
    63   5 B        2.627     0.401    16.057     6.773
    64   8 O        1.637    -0.375    20.381     6.094
    65   6 C        3.833     0.125    18.520     6.123
    66   6 C        3.755    -0.128    23.016     6.841
    67   1 H        0.925     0.057     2.232     2.336
    68   1 H        0.925     0.054     2.276     2.359
    69   1 H        0.925     0.050     2.319     2.381
    70   6 C        3.755    -0.129    23.036     6.844
    71   1 H        0.925     0.061     2.190     2.314
    72   1 H        0.925     0.051     2.307     2.375
    73   1 H        0.925     0.052     2.294     2.369
    74   6 C        3.829     0.126    18.508     6.121
    75   8 O        1.637    -0.383    20.536     6.117
    76   6 C        3.755    -0.124    22.940     6.829
    77   1 H        0.925     0.051     2.307     2.375
    78   1 H        0.925     0.053     2.279     2.361
    79   1 H        0.925     0.054     2.266     2.354
    80   6 C        3.755    -0.123    22.915     6.826
    81   1 H        0.925     0.039     2.458     2.452
    82   1 H        0.925     0.052     2.295     2.369
    83   1 H        0.925     0.055     2.263     2.352
    84   1 H        0.926     0.054     2.270     2.356
    85   1 H        0.926     0.051     2.303     2.373
    86   6 C        2.835    -0.007    28.181     8.699
    87   6 C        2.920    -0.046    29.141     8.852
    88   6 C        2.921    -0.057    29.409     8.893
    89   6 C        2.908     0.049    26.899     8.504
    90   1 H        0.926     0.023     2.695     2.567
    91   6 C        2.963     0.098    25.833     8.337
    92   1 H        0.926     0.045     2.389     2.417
    93   7 N        1.840    -0.269    27.839     7.819
    94   1 H        0.925     0.027     2.630     2.536
    95   6 C        3.816    -0.078    21.970     6.671
    96   6 C        2.974     0.017    27.625     8.621
    97   1 H        0.924     0.070     2.082     2.257
    98   1 H        0.925     0.044     2.393     2.419
    99   6 C        2.924    -0.041    29.013     8.833
   100   6 C        2.925    -0.041    29.011     8.833
   101   6 C        2.919    -0.035    28.882     8.813
   102   1 H        0.926     0.033     2.551     2.497
   103   6 C        2.919    -0.035    28.870     8.811
   104   1 H        0.926     0.041     2.441     2.443
   105   6 C        2.920    -0.039    28.963     8.825
   106   1 H        0.926     0.034     2.524     2.484
   107   1 H        0.926     0.032     2.560     2.502
   108   1 H        0.926     0.032     2.561     2.503

 Mol. C6AA /au·bohr⁶  :     127106.072419
 Mol. C8AA /au·bohr⁸  :    3366038.167928
 Mol. α(0) /au        :        555.333698


Wiberg/Mayer (AO) data.
largest (>0.10) Wiberg bond orders for each atom

 ---------------------------------------------------------------------------
     #   Z sym  total        # sym  WBO       # sym  WBO       # sym  WBO
 ---------------------------------------------------------------------------
     1   7 N    3.404 --     6 C    1.388     2 C    1.311    19 Ir   0.444
     2   6 C    3.978 --     3 C    1.348     1 N    1.311    10 C    1.092
     3   6 C    3.988 --     4 C    1.484     2 C    1.348     9 H    0.961
                             6 C    0.106
     4   6 C    3.985 --     3 C    1.484     5 C    1.382    84 H    0.969
     5   6 C    3.978 --     6 C    1.461     4 C    1.382     8 H    0.968
     6   6 C    3.978 --     5 C    1.461     1 N    1.388     7 H    0.956
                             3 C    0.106
     7   1 H    0.997 --     6 C    0.956
     8   1 H    0.996 --     5 C    0.968
     9   1 H    0.997 --     3 C    0.961
    10   6 C    3.978 --    15 C    1.352    11 N    1.304     2 C    1.092
    11   7 N    3.406 --    12 C    1.387    10 C    1.304    19 Ir   0.435
    12   6 C    3.974 --    13 C    1.458    11 N    1.387    18 H    0.948
                            15 C    0.105
    13   6 C    3.981 --    12 C    1.458    14 C    1.384    17 H    0.969
    14   6 C    3.982 --    15 C    1.480    13 C    1.384    85 H    0.969
    15   6 C    3.989 --    14 C    1.480    10 C    1.352    16 H    0.961
                            12 C    0.105
    16   1 H    0.997 --    15 C    0.961
    17   1 H    0.996 --    13 C    0.969
    18   1 H    0.994 --    12 C    0.948
    19  77 Ir   5.190 --    63 B    0.868    42 B    0.853    21 B    0.720
                            86 C    0.603    20 H    0.530     1 N    0.444
                            11 N    0.435
    20   1 H    0.991 --    19 Ir   0.530    86 C    0.343
    21   5 B    3.269 --    33 O    1.114    22 O    1.089    19 Ir   0.720
    22   8 O    2.188 --    21 B    1.089    23 C    0.943
    23   6 C    3.943 --    24 C    0.997    28 C    0.990    22 O    0.943
                            32 C    0.941
    24   6 C    3.994 --    23 C    0.997    26 H    0.984    27 H    0.983
                            25 H    0.983
    25   1 H    0.997 --    24 C    0.983
    26   1 H    0.997 --    24 C    0.984
    27   1 H    0.997 --    24 C    0.983
    28   6 C    3.997 --    23 C    0.990    31 H    0.985    29 H    0.984
                            30 H    0.984
    29   1 H    0.997 --    28 C    0.984
    30   1 H    0.998 --    28 C    0.984
    31   1 H    0.999 --    28 C    0.985
    32   6 C    3.940 --    38 C    0.997    34 C    0.991    23 C    0.941
                            33 O    0.939
    33   8 O    2.205 --    21 B    1.114    32 C    0.939
    34   6 C    3.994 --    32 C    0.991    36 H    0.984    35 H    0.983
                            37 H    0.983
    35   1 H    0.998 --    34 C    0.983
    36   1 H    0.997 --    34 C    0.984
    37   1 H    0.997 --    34 C    0.983
    38   6 C    3.994 --    32 C    0.997    41 H    0.984    39 H    0.983
                            40 H    0.983
    39   1 H    0.998 --    38 C    0.983
    40   1 H    0.997 --    38 C    0.983
    41   1 H    0.997 --    38 C    0.984
    42   5 B    3.337 --    43 O    1.122    54 O    1.105    19 Ir   0.853
    43   8 O    2.230 --    42 B    1.122    44 C    0.936
    44   6 C    3.936 --    45 C    0.996    49 C    0.991    53 C    0.938
                            43 O    0.936
    45   6 C    3.993 --    44 C    0.996    48 H    0.983    46 H    0.982
                            47 H    0.982
    46   1 H    0.997 --    45 C    0.982
    47   1 H    0.996 --    45 C    0.982
    48   1 H    0.996 --    45 C    0.983
    49   6 C    3.994 --    44 C    0.991    50 H    0.983    51 H    0.983
                            52 H    0.979
    50   1 H    0.997 --    49 C    0.983
    51   1 H    0.998 --    49 C    0.983
    52   1 H    0.997 --    49 C    0.979
    53   6 C    3.937 --    55 C    0.996    59 C    0.992    44 C    0.938
                            54 O    0.935
    54   8 O    2.225 --    42 B    1.105    53 C    0.935
    55   6 C    3.993 --    53 C    0.996    58 H    0.983    57 H    0.983
                            56 H    0.982
    56   1 H    0.997 --    55 C    0.982
    57   1 H    0.997 --    55 C    0.983
    58   1 H    0.996 --    55 C    0.983
    59   6 C    3.994 --    53 C    0.992    61 H    0.983    62 H    0.983
                            60 H    0.981
    60   1 H    0.998 --    59 C    0.981
    61   1 H    0.996 --    59 C    0.983
    62   1 H    0.997 --    59 C    0.983
    63   5 B    3.360 --    64 O    1.119    75 O    1.114    19 Ir   0.868
    64   8 O    2.231 --    63 B    1.119    65 C    0.938
    65   6 C    3.937 --    70 C    0.996    66 C    0.991    64 O    0.938
                            74 C    0.938
    66   6 C    3.993 --    65 C    0.991    69 H    0.983    68 H    0.983
                            67 H    0.979
    67   1 H    0.997 --    66 C    0.979
    68   1 H    0.997 --    66 C    0.983
    69   1 H    0.997 --    66 C    0.983
    70   6 C    3.992 --    65 C    0.996    72 H    0.983    73 H    0.982
                            71 H    0.982
    71   1 H    0.996 --    70 C    0.982
    72   1 H    0.996 --    70 C    0.983
    73   1 H    0.997 --    70 C    0.982
    74   6 C    3.935 --    76 C    0.996    80 C    0.991    65 C    0.938
                            75 O    0.936
    75   8 O    2.229 --    63 B    1.114    74 C    0.936
    76   6 C    3.993 --    74 C    0.996    77 H    0.983    78 H    0.983
                            79 H    0.982
    77   1 H    0.996 --    76 C    0.983
    78   1 H    0.997 --    76 C    0.983
    79   1 H    0.997 --    76 C    0.982
    80   6 C    3.995 --    74 C    0.991    81 H    0.983    83 H    0.983
                            82 H    0.983
    81   1 H    0.998 --    80 C    0.983
    82   1 H    0.997 --    80 C    0.983
    83   1 H    0.996 --    80 C    0.983
    84   1 H    0.996 --     4 C    0.969
    85   1 H    0.996 --    14 C    0.969
    86   6 C    3.944 --    88 C    1.384    87 C    1.373    19 Ir   0.603
                            20 H    0.343
    87   6 C    3.988 --    89 C    1.435    86 C    1.373    90 H    0.964
    88   6 C    3.987 --    91 C    1.409    86 C    1.384    92 H    0.960
                            89 C    0.105
    89   6 C    3.980 --    87 C    1.435    93 N    1.426    94 H    0.962
                            88 C    0.105
    90   1 H    0.999 --    87 C    0.964
    91   6 C    3.975 --    88 C    1.409    93 N    1.390    95 C    0.988
    92   1 H    0.997 --    88 C    0.960
    93   7 N    3.045 --    89 C    1.426    91 C    1.390
    94   1 H    0.998 --    89 C    0.962
    95   6 C    3.992 --    96 C    0.992    91 C    0.988    98 H    0.968
                            97 H    0.962
    96   6 C    3.987 --    99 C    1.416   100 C    1.406    95 C    0.992
                           105 C    0.109
    97   1 H    0.994 --    95 C    0.962
    98   1 H    0.998 --    95 C    0.968
    99   6 C    3.990 --   101 C    1.440    96 C    1.416   102 H    0.969
                           103 C    0.110
   100   6 C    3.991 --   103 C    1.452    96 C    1.406   104 H    0.969
                           101 C    0.112
   101   6 C    3.992 --   105 C    1.442    99 C    1.440   106 H    0.971
                           100 C    0.112
   102   1 H    0.999 --    99 C    0.969
   103   6 C    3.992 --   100 C    1.452   105 C    1.433   107 H    0.971
                            99 C    0.110
   104   1 H    0.998 --   100 C    0.969
   105   6 C    3.990 --   101 C    1.442   103 C    1.433   108 H    0.971
                            96 C    0.109
   106   1 H    0.998 --   101 C    0.971
   107   1 H    0.999 --   103 C    0.971
   108   1 H    0.998 --   105 C    0.971
 ---------------------------------------------------------------------------

Topologies differ in total number of bonds
Writing topology from bond orders to xtbtopo.mol

molecular dipole:
                 x           y           z       tot (Debye)
 q only:        0.281       0.708      -1.425
   full:       -0.914       0.992      -2.314       6.808
molecular quadrupole (traceless):
                xx          xy          yy          xz          yz          zz
 q only:       18.047       0.856       0.302       5.314      18.969     -18.349
  q+dip:       26.799       2.770       2.743       2.622      25.565     -29.543
   full:       22.851       3.556       5.266       2.305      23.496     -28.117


           -------------------------------------------------
          | TOTAL ENERGY             -154.762165202181 Eh   |
          | GRADIENT NORM               0.033151532567 Eh/α |
          | HOMO-LUMO GAP               0.903928324798 eV   |
           -------------------------------------------------

------------------------------------------------------------------------
 * finished run on 2021/10/08 at 07:19:14.837     
------------------------------------------------------------------------
 total:
 * wall-time:     0 d,  0 h,  0 min,  0.167 sec
 *  cpu-time:     0 d,  0 h,  0 min,  0.977 sec
 * ratio c/w:     5.855 speedup
 SCF:
 * wall-time:     0 d,  0 h,  0 min,  0.121 sec
 *  cpu-time:     0 d,  0 h,  0 min,  0.721 sec
 * ratio c/w:     5.972 speedup

