108
 energy: -154.749865939500 gnorm: 0.075233955255 xtb: 6.4.0 (f63f532)
N        -0.96509999999998   -2.11530000000000   -0.24089999999995
C        -2.24699999999996   -1.69840000000004   -0.36220000000001
C        -3.14040000000005   -2.36820000000003   -1.21199999999998
C        -2.70220000000000   -3.47560000000003   -1.93050000000002
C        -1.37780000000009   -3.89880000000000   -1.78760000000003
C        -0.54289999999999   -3.18670000000003   -0.93509999999990
H         0.49810000000000   -3.45630000000000   -0.78940000000000
H        -0.99570000000001   -4.76030000000008   -2.32770000000002
H        -4.16500000000001   -2.02890000000001   -1.31830000000000
C        -2.62130000000002   -0.50949999999999    0.44100000000000
N        -1.62600000000003    0.07330000000002    1.16019999999995
C        -1.89679999999996    1.15239999999995    1.91689999999996
C        -3.17230000000002    1.70330000000004    1.99650000000002
C        -4.20510000000003    1.11739999999997    1.26270000000009
C        -3.92609999999996    0.00250000000002    0.47819999999992
H        -4.71960000000001   -0.46420000000000   -0.09519999999997
H        -3.34630000000000    2.57510000000001    2.62070000000000
H        -1.04450000000000    1.57420000000000    2.43690000000001
Ir        0.42150000000000   -0.81650000000000    0.91330000000000
H         0.87260000000000   -2.23030000000000    1.54050000000000
B         0.50670000000000    0.41559999999996   -0.81539999999999
O         0.19500000000000   -0.04699999999997   -2.09150000000006
C         0.00650000000002    1.10039999999994   -2.95429999999992
C         0.49019999999997    0.74740000000016   -4.35780000000004
H         1.51609999999997    0.37380000000000   -4.33700000000000
H         0.44730000000001    1.62239999999990   -5.01670000000010
H        -0.14739999999999   -0.03389999999995   -4.78430000000002
C        -1.50119999999993    1.39559999999976   -2.96670000000007
H        -1.75369999999998    2.21459999999996   -3.64850000000000
H        -2.03199999999994    0.49450000000001   -3.28929999999996
H        -1.85170000000001    1.65210000000000   -1.96219999999996
C         0.84230000000002    2.20669999999995   -2.22040000000006
O         0.75200000000000    1.78259999999998   -0.83690000000000
C         2.32930000000000    2.18619999999983   -2.59899999999996
H         2.74130000000001    1.18499999999993   -2.45750000000000
H         2.48870000000000    2.51300000000002   -3.63179999999998
H         2.87200000000001    2.86270000000003   -1.93199999999996
C         0.28440000000000    3.62290000000002   -2.33660000000000
H        -0.72650000000003    3.69039999999998   -1.92910000000000
H         0.92130000000004    4.31480000000003   -1.77610000000003
H         0.26429999999999    3.94809999999998   -3.38319999999996
B         1.56299999999999    0.60960000000003    1.84840000000000
O         2.92780000000001    0.55230000000000    2.15020000000000
C         3.36329999999997    1.88659999999994    2.50260000000000
C         4.53140000000000    1.78590000000002    3.47740000000003
H         4.27910000000000    1.16090000000002    4.33690000000000
H         5.39390000000004    1.33790000000001    2.97340000000000
H         4.82390000000000    2.77870000000000    3.83820000000000
C         3.79700000000000    2.56850000000001    1.19669999999991
H         4.20020000000001    3.57090000000000    1.37680000000001
H         4.56740000000000    1.95560000000000    0.72110000000002
H         2.95239999999998    2.63260000000000    0.50539999999999
C         2.05040000000002    2.50090000000006    3.09319999999997
O         1.03750000000000    1.81619999999992    2.31910000000005
C         1.89100000000001    4.00450000000001    2.88649999999983
H         1.87290000000000    4.25440000000001    1.82409999999997
H         0.94940000000001    4.34260000000000    3.33169999999999
H         2.71080000000005    4.55150000000000    3.36630000000004
C         1.82470000000006    2.13199999999990    4.56520000000001
H         1.92610000000001    1.05330000000001    4.71320000000000
H         2.52609999999998    2.65280000000004    5.22540000000002
H         0.80629999999997    2.41579999999997    4.84899999999999
B         2.27819999999999   -1.33089999999997    0.17409999999999
O         2.89459999999997   -2.57739999999998    0.38450000000000
C         4.26930000000002   -2.48200000000002   -0.07209999999991
C         5.10900000000003   -2.05380000000003    1.14010000000009
H         4.76350000000000   -1.08739999999998    1.51750000000001
H         4.98049999999999   -2.79470000000004    1.93590000000012
H         6.17419999999997   -1.99290000000000    0.89299999999999
C         4.71950000000004   -3.84659999999995   -0.58470000000017
H         4.75280000000001   -4.56130000000007    0.24419999999999
H         5.72330000000010   -3.78369999999999   -1.02009999999997
H         4.03500000000001   -4.23599999999994   -1.34170000000000
C         4.16440000000001   -1.36220000000005   -1.16299999999999
O         3.08520000000003   -0.55029999999999   -0.65400000000000
C         5.40720000000000   -0.48869999999998   -1.31550000000001
H         6.27320000000002   -1.09010000000001   -1.61529999999999
H         5.23300000000000    0.26930000000001   -2.08589999999997
H         5.64270000000000    0.02650000000000   -0.38240000000001
C         3.71799999999996   -1.89829999999998   -2.53110000000001
H         2.82530000000001   -2.52160000000003   -2.42739999999999
H         3.46090000000000   -1.05249999999996   -3.17549999999995
H         4.50569999999996   -2.48289999999997   -3.01789999999998
H        -3.38500000000002   -4.00130000000006   -2.59309999999997
H        -5.21399999999998    1.52080000000001    1.29960000000000
C         0.23590000000007   -1.68140000000000    2.96029999999998
C        -1.03870713072108   -2.05299816648123    3.38746418101259
C         1.24079264463168   -1.70490532153517    3.92532228070155
C        -1.25090415473831   -2.34511598688262    4.72312975782967
H        -1.86978721165707   -2.13109018164593    2.69952115963088
C         0.95056110619771   -2.06082870166368    5.23730693564254
H         2.26057642063157   -1.47994302581730    3.64382862693602
N        -0.28771976847745   -2.36564734604708    5.64146684968519
H        -2.23815179755230   -2.60825662902624    5.08823587897753
C         2.05133929649807   -2.20658555176346    6.25923933799445
C         2.88885348681804   -3.40830172321091    5.89765776021228
H         1.59411371691720   -2.34418202515553    7.24265807098952
H         2.67302019167760   -1.30691821118062    6.26656362165879
C         4.10860051631988   -3.26346832538465    5.24165970625567
C         2.42698884183621   -4.69225933291691    6.17923796628979
C         4.85700202815655   -4.37708485502693    4.88808610207447
H         4.47691728277090   -2.27277247152227    5.00603155620078
C         3.17212044203547   -5.80597005004380    5.82071071991042
H         1.47336822177289   -4.81319747927732    6.67876103031851
C         4.39112580232858   -5.65082628096752    5.17697196375912
H         5.80768139177780   -4.24892338891425    4.38564205339333
H         2.80104143713426   -6.79778047898400    6.04619316512625
H         4.97482264903091   -6.51994914347618    4.90089447407587
108
 energy: -154.756309671742 gnorm: 0.046024933271 xtb: 6.4.0 (f63f532)
N        -0.96138682223515   -2.09873282155932   -0.25307489426275
C        -2.23990486273364   -1.68948803457979   -0.36505953699704
C        -3.13478563424393   -2.36202592548940   -1.20622767381090
C        -2.70419988279084   -3.46354160412774   -1.92170000814471
C        -1.38428678176260   -3.88240807183933   -1.78225308294433
C        -0.55390688060030   -3.16713010005542   -0.94134084435343
H         0.47968107877535   -3.44748173735164   -0.79113878875508
H        -1.00782436104006   -4.74264446464413   -2.31705926778843
H        -4.15529184264628   -2.02672933611930   -1.31026004611177
C        -2.61133591446238   -0.51200874771267    0.43413586570657
N        -1.61890878706049    0.06832382931121    1.14577051132846
C        -1.89753755940666    1.13997510601187    1.89202993381084
C        -3.16461622189826    1.68848369708867    1.98072921461857
C        -4.19600455812467    1.10389410971225    1.25437925062353
C        -3.91440244203962   -0.00233256213510    0.47384326689556
H        -4.70575313940526   -0.46611487501829   -0.09476184197208
H        -3.33975456703329    2.55110249921858    2.60814356081979
H        -1.05465250398737    1.55829718112511    2.42124170804571
Ir        0.42150000000000   -0.81650000000000    0.91330000000000
H         0.87260000000000   -2.23030000000000    1.54050000000000
B         0.48766199069485    0.42703300154379   -0.78823140746509
O         0.17501103879942   -0.03434153057105   -2.06036848832160
C         0.01116874650086    1.09642550350427   -2.94291448934494
C         0.49069716571295    0.74612473571654   -4.34756204634886
H         1.50963350695308    0.36939408747407   -4.32609487107135
H         0.44601287695910    1.62138842720852   -4.99627158355220
H        -0.14807013609769   -0.02974935916082   -4.76811039452291
C        -1.49290213895323    1.39891403028326   -2.97033258532187
H        -1.73081677092980    2.21156576621687   -3.65497201301935
H        -2.02279217444467    0.50171902828348   -3.29025763791784
H        -1.84004109505214    1.65419768955303   -1.96898424006593
C         0.83265917682441    2.20699092640666   -2.21238643217301
O         0.75531572817416    1.78196512160883   -0.83461519681471
C         2.31520095463922    2.19018382074190   -2.59967945287407
H         2.71929495157448    1.19107570692672   -2.44929964553281
H         2.46684289796649    2.51116066698053   -3.62953196601013
H         2.85742554729785    2.86520710728738   -1.93858128386094
C         0.28126660521766    3.62296893095042   -2.34040969008717
H        -0.72209057124816    3.69209577118646   -1.92833488017346
H         0.92080377070108    4.30675494345181   -1.78384543153502
H         0.26389543331106    3.93485221079246   -3.38476274866027
B         1.56421904701540    0.61520873347498    1.85898686538206
O         2.92449451105449    0.56382889725951    2.14005932132884
C         3.36270469098881    1.88621207351497    2.51013379394048
C         4.53266916994776    1.78945547955211    3.48063978869778
H         4.27989029189293    1.16275032488100    4.33178980713586
H         5.38771245365630    1.34462683110768    2.97328225013029
H         4.81531028219244    2.77979212172091    3.83628590254725
C         3.79880057952072    2.57298827358397    1.21153537158707
H         4.20003555259448    3.56874534071808    1.39545075766165
H         4.56293101098644    1.96153992143666    0.73465215866360
H         2.95067218963096    2.62531313256762    0.53019682544897
C         2.05266097157631    2.50499498276930    3.08989037699476
O         1.04021707736488    1.80793875947298    2.33718899300850
C         1.89377897225977    4.00699503202599    2.88879734896227
H         1.86845235721033    4.25010645240792    1.83040095774065
H         0.95628234810086    4.33620800457319    3.33517353715099
H         2.71417824043462    4.54340923596098    3.36492057387310
C         1.83114550926603    2.14117664501129    4.56218604741550
H         1.93129796855873    1.06514158418224    4.70019077248404
H         2.53223081551088    2.66242336788680    5.21159769326717
H         0.81662666602472    2.41934277858257    4.84669452430435
B         2.27819999999999   -1.33089999999997    0.17409999999999
O         2.90042471622347   -2.56142649455866    0.39194681252110
C         4.26510285438713   -2.48364543146638   -0.07628607239465
C         5.10853798850464   -2.05909351823456    1.13018232691523
H         4.75282512354447   -1.09839773597247    1.50009183631381
H         4.97388365792319   -2.79393125833731    1.92354124579043
H         6.16655769927908   -1.99996713374640    0.87882068889576
C         4.71993286203649   -3.84567183892582   -0.58613373788314
H         4.74873892147126   -4.55001979228075    0.24386925510535
H         5.71785142255375   -3.77405826233308   -1.01805975164905
H         4.03460835785166   -4.23310803223060   -1.33519231590019
C         4.16650739392458   -1.36083695452859   -1.15690692645403
O         3.07401876288954   -0.56380561673062   -0.66181186137284
C         5.40975568066113   -0.49253881098700   -1.31456113459155
H         6.26585360262468   -1.09851210078270   -1.60999486796146
H         5.23158336372532    0.25831794100115   -2.08313798052298
H         5.63737578758326    0.02219855513180   -0.38563879205700
C         3.72987006439988   -1.90010466465651   -2.52507537902746
H         2.83779354756469   -2.51555308887043   -2.41666639862341
H         3.47282295806421   -1.05863950523549   -3.16710286701266
H         4.52000682426974   -2.47731080002082   -3.00240957395546
H        -3.38340142052442   -3.98846669119588   -2.57960391645885
H        -5.20012046947451    1.50456290490821    1.29529190494291
C         0.23590000000007   -1.68140000000000    2.96029999999998
C        -1.03911374350029   -2.05239989535619    3.39028280820851
C         1.24069887370828   -1.70493642865523    3.92593741475612
C        -1.24649208344651   -2.34317849565505    4.72702409480521
H        -1.87112364382400   -2.13053307325561    2.70454265318596
C         0.94962626047367   -2.06097272569055    5.23665632240912
H         2.25897327134544   -1.48025429516611    3.64527217893701
N        -0.28403572857463   -2.36330610166092    5.63903743268961
H        -2.23259134711536   -2.60554692577037    5.09429945804542
C         2.05108090982210   -2.20735190212533    6.25720363429176
C         2.88901686419098   -3.40789793192522    5.89678792801684
H         1.59557841271670   -2.34373655953526    7.23919536995359
H         2.67142006849091   -1.30912795919432    6.26471820219377
C         4.10652584943227   -3.26357105430492    5.24256267900436
C         2.42869356524593   -4.68939534198595    6.17881722730000
C         4.85416504744439   -4.37483944426275    4.88979818064365
H         4.47441172990908   -2.27465390158953    5.00727706592614
C         3.17209439169536   -5.80124025412536    5.82168125901409
H         1.47719956170732   -4.81004352558048    6.67781682671263
C         4.38945849232398   -5.64681929745812    5.17842226656789
H         5.80335997833310   -4.24684933084970    4.38808431551158
H         2.80156195022530   -6.79159124194872    6.04724803723940
H         4.97220953341820   -6.51464213907700    4.90288434185984
108
 energy: -154.757896539356 gnorm: 0.036522474487 xtb: 6.4.0 (f63f532)
N        -0.95374334614873   -2.08976523652862   -0.26267340411087
C        -2.23034165907523   -1.68208748040074   -0.36936836891369
C        -3.13056219810630   -2.35434922004733   -1.20435924719346
C        -2.70805189483506   -3.45359772250802   -1.91998231950886
C        -1.38846574544874   -3.87267817688929   -1.78417311880983
C        -0.55810314008095   -3.15692129008130   -0.94870296071851
H         0.47431033408942   -3.44078102865567   -0.80635132937979
H        -1.01766767270064   -4.73302748144595   -2.31640871728221
H        -4.15010271593304   -2.02078245888997   -1.29982072650091
C        -2.59848721384368   -0.51298683854310    0.42558654981325
N        -1.60910069016908    0.06260941644829    1.13921970700382
C        -1.89409530544228    1.12947677926340    1.87972923072075
C        -3.15698086984100    1.67849848679723    1.97056744241835
C        -4.18861575295124    1.09394383004216    1.24469562038620
C        -3.90223997678562   -0.00556972476808    0.46392731610041
H        -4.69075258133158   -0.47114491496369   -0.10273543182006
H        -3.33296799259334    2.53678085485062    2.59816957015192
H        -1.05623220214203    1.55409347020910    2.40875015525962
Ir        0.42150000000000   -0.81650000000000    0.91330000000000
H         0.87260000000000   -2.23030000000000    1.54050000000000
B         0.49371921379063    0.43886892230999   -0.76475200316253
O         0.15585843805488   -0.02409874633104   -2.02832209190264
C         0.00747172254611    1.09352460721115   -2.92209648638502
C         0.49256175835366    0.73661694156386   -4.32356009929499
H         1.50772376214289    0.35599587173643   -4.30243503396192
H         0.44860029200371    1.61464139861685   -4.96307922380878
H        -0.15019261414737   -0.03318646435778   -4.74267575294379
C        -1.49473778299036    1.40587786000360   -2.97038069447026
H        -1.71354684022736    2.21439280961053   -3.66146402776051
H        -2.02392211761175    0.51100512410882   -3.29126488431573
H        -1.84540391411139    1.66535536039528   -1.97360923436963
C         0.82595319671998    2.20714733799348   -2.19940750935436
O         0.75975141187907    1.78781359593631   -0.82577051898132
C         2.30603684055463    2.19476945129386   -2.59647403179255
H         2.70711030528488    1.19728496085544   -2.43840856102506
H         2.44460631021044    2.50749718438559   -3.62753490094906
H         2.84823214443931    2.87481255841240   -1.94412301466695
C         0.27204193999013    3.62150156450469   -2.33822204321507
H        -0.72734951767068    3.69683740196268   -1.92307423098219
H         0.91657326347198    4.30451177826517   -1.79154663573151
H         0.25554709980192    3.91591666458372   -3.38425611827419
B         1.56682482351719    0.62091041482799    1.86691947736162
O         2.92253134673357    0.57313750332785    2.13203908337752
C         3.36098523891952    1.88669930585455    2.51454988644295
C         4.52931195622526    1.79006678103130    3.48778701753419
H         4.27942582343969    1.16022693950886    4.33454563203046
H         5.38192284411075    1.35165260567124    2.97654863821608
H         4.80239668463221    2.78031651191779    3.84065379247407
C         3.80163913968665    2.58264992163848    1.22278212098181
H         4.19936916321566    3.57454397356253    1.41466174096778
H         4.56525464203537    1.97388389408749    0.74630520258478
H         2.95232238781945    2.62938229157803    0.54555508327978
C         2.05263776381540    2.50458184396437    3.09254513599526
O         1.04193137817399    1.80017120982870    2.35308662687465
C         1.89547690886037    4.00624777689110    2.88820650704037
H         1.86273877149122    4.24716221047970    1.83165596426431
H         0.96289962766878    4.33227788971794    3.34039723275868
H         2.71947725378160    4.53419225308743    3.35958392644112
C         1.84051594151873    2.15018215607763    4.56927367958371
H         1.94157015090851    1.07548356009889    4.70220643654458
H         2.54431075168399    2.67466180126860    5.20766500424740
H         0.82813486796680    2.42634371244585    4.85466754374827
B         2.27819999999999   -1.33089999999997    0.17409999999999
O         2.90156885955800   -2.54941189215285    0.40149894047926
C         4.25752182578971   -2.48229474074970   -0.07462980484275
C         5.10997993472776   -2.06149740237776    1.12629228205989
H         4.75035002463032   -1.10275000538521    1.49184403717976
H         4.97228529248785   -2.79397573686082    1.91791031806544
H         6.16300067869374   -2.00555298828667    0.86830625427209
C         4.71126688936738   -3.84420060861008   -0.58666772574964
H         4.74149732015859   -4.54206411652233    0.24494798524509
H         5.70552551116848   -3.76368141069344   -1.01679061434231
H         4.02643878612957   -4.23318414515083   -1.33192227851991
C         4.16241162109830   -1.36174416418593   -1.15390869169187
O         3.06240194512134   -0.57333815268031   -0.66975047021054
C         5.40732902781361   -0.49534812667279   -1.30682667306791
H         6.25574465360986   -1.10891320223006   -1.59613521364636
H         5.23109267797253    0.24858279024217   -2.07868998798119
H         5.63131874735393    0.02186248367677   -0.38108474544866
C         3.74126841880508   -1.90503436812780   -2.52591548505399
H         2.85008783481930   -2.51772466635307   -2.41719526529202
H         3.48843952811239   -1.06548315229389   -3.16870379612083
H         4.53789203974280   -2.47815275877735   -2.98978389253404
H        -3.38903071852493   -3.97929375949923   -2.57097199804223
H        -5.19168751044440    1.48953299543229    1.28973522650255
C         0.23590000000006   -1.68140000000000    2.96029999999998
C        -1.03992552354303   -2.05021347169868    3.39280079539618
C         1.24144738114204   -1.70430817678817    3.92575298558874
C        -1.24407101075893   -2.33896115835688    4.73106585943939
H        -1.87291657354637   -2.12843485525455    2.70886505087032
C         0.94988013368152   -2.05892921194005    5.23675165161608
H         2.25892960325880   -1.48113468974565    3.64439377689096
N        -0.28114179599915   -2.35904985225409    5.63844265437518
H        -2.22997617703863   -2.59966503785133    5.09996727461390
C         2.05203866941238   -2.20432557019989    6.25663347841179
C         2.88913162770252   -3.40470035112547    5.89673759557052
H         1.59723844780470   -2.34034924159692    7.23791664299702
H         2.67176717780319   -1.30681935621970    6.26286753175677
C         4.10554748967642   -3.26087212245153    5.24303305407911
C         2.42898807302608   -4.68505159352805    6.17971687376230
C         4.85282654385577   -4.37154011361687    4.89097201586850
H         4.47341135673576   -2.27286163511173    5.00760234894922
C         3.17152804111846   -5.79651244512456    5.82367833642555
H         1.47855080194364   -4.80516324057509    6.67889125181923
C         4.38840900137256   -5.64284375760389    5.18008640846446
H         5.80124134673005   -4.24388866401143    4.38943171087954
H         2.80136513913806   -6.78607078272279    6.05006389600299
H         4.97048929472190   -6.51024393578610    4.90510936241558
108
 energy: -154.758408745500 gnorm: 0.035859860420 xtb: 6.4.0 (f63f532)
N        -0.94489745900165   -2.08582441054049   -0.27385904264469
C        -2.22243147825067   -1.67842491459610   -0.37505675821715
C        -3.12785161712060   -2.35136644903631   -1.20512829652939
C        -2.71089606429560   -3.45121290222063   -1.92172627505752
C        -1.38933653090486   -3.87001559056785   -1.79231265829347
C        -0.55472665554836   -3.15261146638267   -0.96216941625838
H         0.47782536801959   -3.43989151336181   -0.82522032149338
H        -1.02259917552785   -4.73155595834113   -2.32447735886761
H        -4.14749033543603   -2.01656737299497   -1.29424529100657
C        -2.58876346856242   -0.51232309036359    0.41921445614987
N        -1.60005315781164    0.06317335497872    1.13456568400412
C        -1.88824920218906    1.12996831051720    1.87307460763969
C        -3.15178897152465    1.67667470702151    1.96551265602251
C        -4.18387488671301    1.09007371553768    1.23928663602047
C        -3.89386087842561   -0.00634400220557    0.45687540501525
H        -4.67968049192929   -0.47244587196294   -0.11284546748783
H        -3.32935769901086    2.53289553718193    2.59443925374623
H        -1.05355085111112    1.55675475730090    2.40596652697358
Ir        0.42150000000000   -0.81650000000000    0.91330000000000
H         0.87260000000000   -2.23030000000000    1.54050000000000
B         0.47823685488279    0.45448964926309   -0.74483005239226
O         0.13470963269829   -0.01486120859929   -2.00416641009279
C        -0.00035442651276    1.09413780957319   -2.90525359163155
C         0.49292834419032    0.72561543648500   -4.30165311882417
H         1.50548759920373    0.33884082569454   -4.27312718512828
H         0.45689574103030    1.60277419960968   -4.94227830069457
H        -0.15279242413346   -0.04164525631062   -4.72049264911460
C        -1.50127854883156    1.41461478576179   -2.97043111148037
H        -1.70516569153459    2.22077258291981   -3.66829202866248
H        -2.03131167896492    0.52101389185695   -3.29283298584449
H        -1.86072774499990    1.68110103997613   -1.97875369244269
C         0.81912532348460    2.21010515731272   -2.18687742973000
O         0.76019591062880    1.79815078457152   -0.81371832601213
C         2.29795570870789    2.19839796521834   -2.59191931918759
H         2.70090454901381    1.20282454302738   -2.42700370972945
H         2.42838227248376    2.50268929051118   -3.62619816875980
H         2.84120169460173    2.88573009790342   -1.94830814430256
C         0.26429251655384    3.62416530040843   -2.33416301528028
H        -0.73320870709786    3.70372665574064   -1.91562140683418
H         0.91223199594774    4.31174752827702   -1.79740818667632
H         0.24374343425786    3.90582363139202   -3.38342746418092
B         1.56730578335282    0.62156037454388    1.87526362583102
O         2.92322769045724    0.57759167531876    2.12580242700284
C         3.36033942489649    1.88694040179472    2.51790812359826
C         4.52789791351743    1.78865253510952    3.49336246146069
H         4.27935167353845    1.15445561603335    4.33707463929489
H         5.38265228937457    1.35624847911576    2.98085222632758
H         4.79475279038501    2.77910124857811    3.84976348764647
C         3.80460170582219    2.59227561026504    1.23150717933338
H         4.19865842859241    3.58353227775605    1.43163640576932
H         4.57161934434657    1.98798696066254    0.75491085373317
H         2.95686110200380    2.63981606222400    0.55270696143630
C         2.05236777551049    2.50370073702842    3.09805702017865
O         1.04071680399121    1.79353522711140    2.36873227982477
C         1.89381024788725    4.00545006933524    2.88915029432317
H         1.85353734959249    4.24358957900466    1.83224239477402
H         0.96522387124557    4.33335910686765    3.34792403233363
H         2.72272136600939    4.53181155110997    3.35309018688791
C         1.84910644584772    2.15761327194603    4.57899224528377
H         1.95217355271199    1.08374207227860    4.71533033546521
H         2.55681374481711    2.68673338232326    5.20852021608986
H         0.83818619877761    2.43446665651170    4.86812722823364
B         2.27819999999998   -1.33089999999996    0.17409999999999
O         2.90190424001455   -2.54373236270663    0.41101289298492
C         4.25268056516123   -2.48222654416402   -0.07173520799110
C         5.11246112983582   -2.06295679040818    1.12551834643036
H         4.75515747750657   -1.10340761950833    1.49092929929210
H         4.97488105283797   -2.79486860016735    1.91738219019323
H         6.16376231616256   -2.01010946048754    0.86236314672855
C         4.70272599910038   -3.84608725404628   -0.58436014588825
H         4.73529597783871   -4.54231837334420    0.24828978657154
H         5.69530068447659   -3.76352381932827   -1.01706862875003
H         4.01571616089424   -4.23547655827258   -1.32723704767406
C         4.15965006124901   -1.36333148143444   -1.15292813903620
O         3.05458987498286   -0.57848777026743   -0.67822386009547
C         5.40508964257161   -0.49576217336517   -1.30013524953813
H         6.25314564955552   -1.11314335309528   -1.58152371518855
H         5.23367854956514    0.24456286195775   -2.07636603397938
H         5.62387131571488    0.02457018706827   -0.37506059631887
C         3.75147684577623   -1.91020731752317   -2.52841023995205
H         2.86057883651654   -2.52388190905442   -2.42559870640363
H         3.50434261687885   -1.07199055396473   -3.17500510047890
H         4.55442321637699   -2.48246457606967   -2.98144320045433
H        -3.39545691428466   -3.97699437946106   -2.56856769344892
H        -5.18788092306684    1.48232779145778    1.28569102846319
C         0.23590000000006   -1.68140000000000    2.96029999999997
C        -1.04037268572653   -2.04758584709933    3.39454682235168
C         1.24232541237385   -1.70334685794622    3.92503865466310
C        -1.24350913060420   -2.33362297884472    4.73392403249159
H        -1.87418365241473   -2.12550237123311    2.71172082444284
C         0.95091646339338   -2.05490976287354    5.23719271603992
H         2.25971055657122   -1.48200496318169    3.64227988217655
N        -0.27973228745846   -2.35306407484258    5.63974687531880
H        -2.22971239960513   -2.59213539723590    5.10382095339191
C         2.05360983342728   -2.19908525424467    6.25682828137449
C         2.88982494490652   -3.39998927252762    5.89761527669852
H         1.59902365073415   -2.33423278138778    7.23827254005372
H         2.67341677722138   -1.30177974883125    6.26142540069995
C         4.10591500001571   -3.25694634128965    5.24329283281041
C         2.42909717095701   -4.67998915479584    6.18169065886454
C         4.85268918411588   -4.36816826644109    4.89158136330335
H         4.47402823305684   -2.26922891327264    5.00713685361586
C         3.17110697801590   -5.79195834542914    5.82612444037779
H         1.47877310992296   -4.79937327662717    6.68124463726437
C         4.38792225608405   -5.63915516334766    5.18180742141589
H         5.80093013007264   -4.24112909717939    4.38968653512706
H         2.80085664501141   -6.78124028287001    6.05342289964562
H         4.96953377435827   -6.50691710272354    4.90731376724759
108
 energy: -154.758957131305 gnorm: 0.036085704684 xtb: 6.4.0 (f63f532)
N        -0.93271316058201   -2.08386232935913   -0.28887130205678
C        -2.21183662912941   -1.67572104297494   -0.38334183640604
C        -3.12314131026950   -2.34914964523965   -1.20846450175603
C        -2.71280377458299   -3.44966915306482   -1.92720937974927
C        -1.38849223970412   -3.86754261709953   -1.80757413191798
C        -0.54776989482673   -3.14925487253375   -0.98309264716576
H         0.48663345424314   -3.43753594652176   -0.85741040868516
H        -1.02633600799609   -4.72951890363354   -2.34247883448658
H        -4.14335648334607   -2.01284975539113   -1.28889414389942
C        -2.57614297233469   -0.51176903692070    0.41134713937010