      -----------------------------------------------------------      
     |                   =====================                   |     
     |                           x T B                           |     
     |                   =====================                   |     
     |                         S. Grimme                         |     
     |          Mulliken Center for Theoretical Chemistry        |     
     |                    University of Bonn                     |     
      -----------------------------------------------------------      

   * xtb version 6.4.1 (1a32961) compiled by 'knkr256@seskscpg007.prim.scp' on 2021-10-19

   xtb is free software: you can redistribute it and/or modify it under
   the terms of the GNU Lesser General Public License as published by
   the Free Software Foundation, either version 3 of the License, or
   (at your option) any later version.
   
   xtb is distributed in the hope that it will be useful,
   but WITHOUT ANY WARRANTY; without even the implied warranty of
   MERCHANTABILITY or FITNESS FOR A PARTICULAR PURPOSE.  See the
   GNU Lesser General Public License for more details.
   
   Cite this work as:
   * C. Bannwarth, E. Caldeweyher, S. Ehlert, A. Hansen, P. Pracht,
     J. Seibert, S. Spicher, S. Grimme, WIREs Comput. Mol. Sci., 2020, 11,
     e01493. DOI: 10.1002/wcms.1493
   
   for GFN2-xTB:
   * C. Bannwarth, S. Ehlert and S. Grimme., J. Chem. Theory Comput., 2019,
     15, 1652-1671. DOI: 10.1021/acs.jctc.8b01176
   for GFN1-xTB:
   * S. Grimme, C. Bannwarth, P. Shushkov, J. Chem. Theory Comput., 2017,
     13, 1989-2009. DOI: 10.1021/acs.jctc.7b00118
   for GFN0-xTB:
   * P. Pracht, E. Caldeweyher, S. Ehlert, S. Grimme, ChemRxiv, 2019, preprint.
     DOI: 10.26434/chemrxiv.8326202.v1
   for GFN-FF:
   * S. Spicher and S. Grimme, Angew. Chem. Int. Ed., 2020, 59, 15665-15673.
     DOI: 10.1002/anie.202004239
   
   for ALPB and GBSA implicit solvation:
   * S. Ehlert, M. Stahn, S. Spicher, S. Grimme, J. Chem. Theory Comput.,
     2021, 17, 4250-4261. DOI: 10.1021/acs.jctc.1c00471
   
   for DFT-D4:
   * E. Caldeweyher, C. Bannwarth and S. Grimme, J. Chem. Phys., 2017,
     147, 034112. DOI: 10.1063/1.4993215
   * E. Caldeweyher, S. Ehlert, A. Hansen, H. Neugebauer, S. Spicher,
     C. Bannwarth and S. Grimme, J. Chem. Phys., 2019, 150, 154122.
     DOI: 10.1063/1.5090222
   * E. Caldeweyher, J.-M. Mewes, S. Ehlert and S. Grimme, Phys. Chem. Chem. Phys.
     2020, 22, 8499-8512. DOI: 10.1039/D0CP00502A
   
   for sTDA-xTB:
   * S. Grimme and C. Bannwarth, J. Chem. Phys., 2016, 145, 054103.
     DOI: 10.1063/1.4959605
   
   in the mass-spec context:
   * V. Asgeirsson, C. Bauer and S. Grimme, Chem. Sci., 2017, 8, 4879.
     DOI: 10.1039/c7sc00601b
   * J. Koopman and S. Grimme, ACS Omega 2019, 4, 12, 15120-15133.
     DOI: 10.1021/acsomega.9b02011
   
   for metadynamics refer to:
   * S. Grimme, J. Chem. Theory Comput., 2019, 155, 2847-2862
     DOI: 10.1021/acs.jctc.9b00143
   
   for SPH calculations refer to:
   * S. Spicher and S. Grimme, J. Chem. Theory Comput., 2021, 17, 1701-1714
     DOI: 10.1021/acs.jctc.0c01306
   
   with help from (in alphabetical order)
   P. Atkinson, C. Bannwarth, F. Bohle, G. Brandenburg, E. Caldeweyher
   M. Checinski, S. Dohm, S. Ehlert, S. Ehrlich, I. Gerasimov, J. Koopman
   C. Lavigne, S. Lehtola, F. März, M. Müller, F. Musil, H. Neugebauer
   J. Pisarek, C. Plett, P. Pracht, J. Seibert, P. Shushkov, S. Spicher
   M. Stahn, M. Steiner, T. Strunk, J. Stückrath, T. Rose, and J. Unsleber
   
 * started run on 2022/01/14 at 15:09:01.658     

           -------------------------------------------------
          |                Calculation Setup                |
           -------------------------------------------------

          program call               : xtb xtbopt.xyz --sp --alpb thf -P 6
          hostname                   : seskscpg007.prim.scp
          coordinate file            : xtbopt.xyz
          omp threads                :                     6
          number of atoms            :                   101
          number of electrons        :                   268
          charge                     :                     0
          spin                       :                   0.0
          first test random number   :      0.30281527281706

   ID    Z sym.   atoms
    1    7 N      1, 11
    2    6 C      2-6, 10, 12-15, 23, 24, 28, 32, 34, 38, 44, 45, 49, 53, 55,
                  59, 65, 66, 70, 74, 76, 80, 86-89, 92, 93, 95
    3    1 H      7-9, 16-18, 20, 25-27, 29-31, 35-37, 39-41, 46-48, 50-52,
                  56-58, 60-62, 67-69, 71-73, 77-79, 81-85, 90, 96-101
    4   77 Ir     19
    5    5 B      21, 42, 63
    6    8 O      22, 33, 43, 54, 64, 75, 91, 94

molecular fragmentation (1/2 indicates fragments):
111111111111111111111111111111111111111111111111111111111111111111111111
11111111111112222222222222222
# atoms in fragment 1/2:    85    16
 fragment masses (1/2) :      730.32      123.13
CMA distance (Bohr)    :   8.621
constraining FC (au)   :  0.0500

           -------------------------------------------------
          |                 G F N 2 - x T B                 |
           -------------------------------------------------

        Reference                      10.1021/acs.jctc.8b01176
      * Hamiltonian:
        H0-scaling (s, p, d)           1.850000    2.230000    2.230000
        zeta-weighting                 0.500000
      * Dispersion:
        s8                             2.700000
        a1                             0.520000
        a2                             5.000000
        s9                             5.000000
      * Repulsion:
        kExp                           1.500000    1.000000
        rExp                           1.000000
      * Coulomb:
        alpha                          2.000000
        third order                    shell-resolved
        anisotropic                    true
        a3                             3.000000
        a5                             4.000000
        cn-shift                       1.200000
        cn-exp                         4.000000
        max-rad                        5.000000

      * Solvation model:               ALPB
        Solvent                        thf
        Parameter file                 internal GFN2-xTB/ALPB
        Dielectric constant                7.6000E+00
        Reference state                gsolv [1 M gas/solution]
        Free energy shift                  5.3248E-03 Eh       3.3414E+00 kcal/mol
        Temperature                        2.9815E+02 K
        Density                            8.8300E-01 kg/L
        Solvent mass                       7.2106E+01 g/mol
        Interaction kernel             P16
        Born radius scaling (c1)           1.7311E+00
        Born radii integrator          GBOBC
        Born offset                        0.0000E+00 a0       0.0000E+00 AA
        H-bond correction              true
        Ion screening                  false
        Surface tension                    1.0000E-05 Eh       1.5569E+01 dyn/cm
        Grid points                               230 per atom
q/qsh data taken from xtbrestart
CAMM data taken from xtbrestart

          ...................................................
          :                      SETUP                      :
          :.................................................:
          :  # basis functions                 254          :
          :  # atomic orbitals                 253          :
          :  # shells                          151          :
          :  # electrons                       268          :
          :  max. iterations                   250          :
          :  Hamiltonian                  GFN2-xTB          :
          :  restarted?                       true          :
          :  GBSA solvation                   true          :
          :  PC potential                    false          :
          :  electronic temp.          300.0000000     K    :
          :  accuracy                    1.0000000          :
          :  -> integral cutoff          0.2500000E+02      :
          :  -> integral neglect         0.1000000E-07      :
          :  -> SCF convergence          0.1000000E-05 Eh   :
          :  -> wf. convergence          0.1000000E-03 e    :
          :  Broyden damping             0.4000000          :
          ...................................................

 iter      E             dE          RMSdq      gap      omega  full diag
   1   -149.5756389 -0.149576E+03  0.470E-05    0.79       0.0  T
   2   -149.5756389  0.149913E-08  0.128E-04    0.79      77.9  T
   3   -149.5756389 -0.171073E-08  0.152E-05    0.79     654.7  T

   *** convergence criteria satisfied after 3 iterations ***

         #    Occupation            Energy/Eh            Energy/eV
      -------------------------------------------------------------
         1        2.0000           -0.7274824             -19.7958
       ...           ...                  ...                  ...
       128        2.0000           -0.3735044             -10.1636
       129        2.0000           -0.3468520              -9.4383
       130        2.0000           -0.3286155              -8.9421
       131        2.0000           -0.3224136              -8.7733
       132        2.0000           -0.3188416              -8.6761
       133        2.0000           -0.3101729              -8.4402
       134        2.0000           -0.3081963              -8.3864 (HOMO)
       135        0.0000           -0.2790537              -7.5934 (LUMO)
       136                         -0.2569673              -6.9924
       137                         -0.2498833              -6.7997
       138                         -0.2476481              -6.7388
       139                         -0.2074035              -5.6437
       ...                                ...                  ...
       253                          3.6785527             100.0985
      -------------------------------------------------------------
                  HL-Gap            0.0291426 Eh            0.7930 eV
             Fermi-level           -0.2935691 Eh           -7.9884 eV

 SCC (total)                   0 d,  0 h,  0 min,  0.093 sec
 SCC setup                      ...        0 min,  0.002 sec (  2.518%)
 Dispersion                     ...        0 min,  0.003 sec (  2.702%)
 classical contributions        ...        0 min,  0.000 sec (  0.150%)
 integral evaluation            ...        0 min,  0.011 sec ( 11.697%)
 iterations                     ...        0 min,  0.038 sec ( 40.443%)
 molecular gradient             ...        0 min,  0.039 sec ( 41.696%)
 printout                       ...        0 min,  0.001 sec (  0.733%)

         :::::::::::::::::::::::::::::::::::::::::::::::::::::
         ::                     SUMMARY                     ::
         :::::::::::::::::::::::::::::::::::::::::::::::::::::
         :: total energy            -147.744991670492 Eh    ::
         :: total w/o Gsasa/hb      -147.704415515990 Eh    ::
         :: gradient norm              0.039672022153 Eh/a0 ::
         :: HOMO-LUMO gap              0.793009226760 eV    ::
         ::.................................................::
         :: SCC energy              -149.575638937792 Eh    ::
         :: -> isotropic ES            0.283379313246 Eh    ::
         :: -> anisotropic ES          0.014161156529 Eh    ::
         :: -> anisotropic XC          0.044371869143 Eh    ::
         :: -> dispersion             -0.139257233967 Eh    ::
         :: -> Gsolv                  -0.057192711469 Eh    ::
         ::    -> Gelec               -0.016616556967 Eh    ::
         ::    -> Gsasa               -0.042511525534 Eh    ::
         ::    -> Ghb                 -0.003389444412 Eh    ::
         ::    -> Gshift               0.005324815444 Eh    ::
         :: repulsion energy           1.822034921479 Eh    ::
         :: add. restraining           0.000000000000 Eh    ::
         :: total charge               0.000000000063 e     ::
         :::::::::::::::::::::::::::::::::::::::::::::::::::::

           -------------------------------------------------
          |                Property Printout                |
           -------------------------------------------------

    * Orbital Energies and Occupations

         #    Occupation            Energy/Eh            Energy/eV
      -------------------------------------------------------------
         1        2.0000           -0.7274824             -19.7958
       ...           ...                  ...                  ...
       122        2.0000           -0.3958512             -10.7717
       123        2.0000           -0.3882967             -10.5661
       124        2.0000           -0.3857946             -10.4980
       125        2.0000           -0.3779077             -10.2834
       126        2.0000           -0.3775974             -10.2749
       127        2.0000           -0.3763267             -10.2404
       128        2.0000           -0.3735044             -10.1636
       129        2.0000           -0.3468520              -9.4383
       130        2.0000           -0.3286155              -8.9421
       131        2.0000           -0.3224136              -8.7733
       132        2.0000           -0.3188416              -8.6761
       133        2.0000           -0.3101729              -8.4402
       134        2.0000           -0.3081963              -8.3864 (HOMO)
       135        0.0000           -0.2790537              -7.5934 (LUMO)
       136                         -0.2569673              -6.9924
       137                         -0.2498833              -6.7997
       138                         -0.2476481              -6.7388
       139                         -0.2074035              -5.6437
       140                         -0.1901331              -5.1738
       141                         -0.1725553              -4.6955
       142                         -0.1517966              -4.1306
       143                         -0.1304763              -3.5504
       144                         -0.1257072              -3.4207
       145                         -0.1201735              -3.2701
       ...                                ...                  ...
       253                          3.6785527             100.0985
      -------------------------------------------------------------
                  HL-Gap            0.0291426 Eh            0.7930 eV
             Fermi-level           -0.2935691 Eh           -7.9884 eV

     #   Z          covCN         q      C6AA      α(0)
     1   7 N        2.520    -0.126    23.778     7.242
     2   6 C        2.951     0.072    26.397     8.427
     3   6 C        2.917    -0.045    29.111     8.848
     4   6 C        2.923    -0.022    28.555     8.763
     5   6 C        2.915    -0.042    29.048     8.838
     6   6 C        2.889     0.047    26.941     8.510
     7   1 H        0.926     0.076     2.023     2.224
     8   1 H        0.926     0.058     2.221     2.331
     9   1 H        0.926     0.049     2.331     2.388
    10   6 C        2.953     0.070    26.436     8.433
    11   7 N        2.553    -0.119    23.629     7.219
    12   6 C        2.891     0.048    26.919     8.506
    13   6 C        2.915    -0.042    29.037     8.836
    14   6 C        2.923    -0.023    28.576     8.766
    15   6 C        2.918    -0.046    29.145     8.853
    16   1 H        0.926     0.049     2.328     2.386
    17   1 H        0.926     0.057     2.237     2.339
    18   1 H        0.926     0.068     2.109     2.271
    19  77 Ir       5.910    -0.155   388.039    36.428
    20   1 H        0.977     0.113     1.667     2.018
    21   5 B        2.642     0.403    15.966     6.740
    22   8 O        1.637    -0.406    20.971     6.181
    23   6 C        3.838     0.130    18.449     6.110
    24   6 C        3.755    -0.124    22.930     6.828
    25   1 H        0.925     0.055     2.256     2.349
    26   1 H        0.925     0.046     2.364     2.404
    27   1 H        0.925     0.054     2.265     2.354
    28   6 C        3.754    -0.111    22.671     6.789
    29   1 H        0.925     0.049     2.327     2.385
    30   1 H        0.925     0.044     2.395     2.420
    31   1 H        0.925     0.026     2.639     2.541
    32   6 C        3.845     0.131    18.436     6.108
    33   8 O        1.637    -0.408    21.006     6.187
    34   6 C        3.755    -0.119    22.835     6.814
    35   1 H        0.925     0.047     2.359     2.402
    36   1 H        0.925     0.048     2.343     2.393
    37   1 H        0.925     0.049     2.332     2.388
    38   6 C        3.754    -0.121    22.876     6.820
    39   1 H        0.925     0.045     2.379     2.412
    40   1 H        0.925     0.055     2.257     2.349
    41   1 H        0.925     0.047     2.357     2.401
    42   5 B        2.632     0.408    15.954     6.746
    43   8 O        1.638    -0.367    20.233     6.072
    44   6 C        3.845     0.128    18.479     6.115
    45   6 C        3.755    -0.124    22.926     6.827
    46   1 H        0.925     0.051     2.303     2.373
    47   1 H        0.925     0.054     2.266     2.354
    48   1 H        0.925     0.049     2.334     2.389
    49   6 C        3.755    -0.124    22.936     6.829
    50   1 H        0.925     0.049     2.329     2.387
    51   1 H        0.925     0.058     2.221     2.330
    52   1 H        0.925     0.050     2.317     2.381
    53   6 C        3.833     0.127    18.492     6.118
    54   8 O        1.636    -0.393    20.726     6.145
    55   6 C        3.754    -0.122    22.886     6.821
    56   1 H        0.925     0.042     2.427     2.436
    57   1 H        0.925     0.050     2.322     2.383
    58   1 H        0.925     0.053     2.289     2.366
    59   6 C        3.755    -0.124    22.926     6.827
    60   1 H        0.925     0.053     2.288     2.365
    61   1 H        0.925     0.050     2.320     2.382
    62   1 H        0.925     0.054     2.276     2.359
    63   5 B        2.634     0.408    15.944     6.743
    64   8 O        1.638    -0.387    20.615     6.129
    65   6 C        3.832     0.126    18.515     6.122
    66   6 C        3.755    -0.128    23.007     6.839
    67   1 H        0.925     0.055     2.258     2.350
    68   1 H        0.925     0.050     2.323     2.384
    69   1 H        0.925     0.050     2.322     2.383
    70   6 C        3.754    -0.128    23.005     6.839
    71   1 H        0.925     0.057     2.232     2.336
    72   1 H        0.925     0.049     2.330     2.387
    73   1 H        0.925     0.054     2.268     2.355
    74   6 C        3.840     0.127    18.488     6.117
    75   8 O        1.637    -0.362    20.133     6.057
    76   6 C        3.755    -0.126    22.971     6.834
    77   1 H        0.925     0.050     2.320     2.382
    78   1 H        0.925     0.055     2.262     2.352
    79   1 H        0.925     0.059     2.213     2.326
    80   6 C        3.754    -0.121    22.881     6.821
    81   1 H        0.925     0.047     2.362     2.403
    82   1 H        0.925     0.047     2.363     2.404
    83   1 H        0.925     0.053     2.281     2.362
    84   1 H        0.926     0.055     2.262     2.352
    85   1 H        0.926     0.055     2.255     2.348
    86   6 C        2.902    -0.046    29.143     8.852
    87   6 C        3.014    -0.075    29.840     8.961
    88   6 C        3.089     0.062    26.509     8.439
    89   6 C        3.060     0.125    25.195     8.231
    90   1 H        0.926     0.032     2.552     2.498
    91   8 O        1.724    -0.222    17.682     5.678
    92   6 C        2.812     0.219    23.377     7.922
    93   6 C        3.753    -0.136    23.183     6.866
    94   8 O        0.858    -0.451    22.735     6.393
    95   6 C        3.756    -0.142    23.295     6.882
    96   1 H        0.925     0.078     1.999     2.211
    97   1 H        0.925     0.068     2.109     2.271
    98   1 H        0.925     0.078     1.999     2.211
    99   1 H        0.925     0.075     2.032     2.229
   100   1 H        0.925     0.073     2.048     2.238
   101   1 H        0.925     0.063     2.159     2.298

 Mol. C6AA /au·bohr⁶  :     106630.250458
 Mol. C8AA /au·bohr⁸  :    2823003.959876
 Mol. α(0) /au        :        503.809235


Wiberg/Mayer (AO) data.
largest (>0.10) Wiberg bond orders for each atom

 ---------------------------------------------------------------------------
     #   Z sym  total        # sym  WBO       # sym  WBO       # sym  WBO
 ---------------------------------------------------------------------------
     1   7 N    3.398 --     6 C    1.395     2 C    1.315    19 Ir   0.423
     2   6 C    3.979 --     3 C    1.356     1 N    1.315    10 C    1.085
     3   6 C    3.988 --     4 C    1.475     2 C    1.356     9 H    0.962
                             6 C    0.106
     4   6 C    3.985 --     3 C    1.475     5 C    1.393    84 H    0.969
     5   6 C    3.980 --     6 C    1.451     4 C    1.393     8 H    0.968
     6   6 C    3.972 --     5 C    1.451     1 N    1.395     7 H    0.951
                             3 C    0.106
     7   1 H    0.994 --     6 C    0.951
     8   1 H    0.996 --     5 C    0.968
     9   1 H    0.997 --     3 C    0.962
    10   6 C    3.978 --    15 C    1.358    11 N    1.310     2 C    1.085
    11   7 N    3.411 --    12 C    1.389    10 C    1.310    19 Ir   0.438
    12   6 C    3.974 --    13 C    1.453    11 N    1.389    18 H    0.952
                            15 C    0.105
    13   6 C    3.981 --    12 C    1.453    14 C    1.391    17 H    0.968
    14   6 C    3.982 --    15 C    1.473    13 C    1.391    85 H    0.968
    15   6 C    3.988 --    14 C    1.473    10 C    1.358    16 H    0.962
                            12 C    0.105
    16   1 H    0.997 --    15 C    0.962
    17   1 H    0.996 --    13 C    0.968
    18   1 H    0.995 --    12 C    0.952
    19  77 Ir   5.211 --    42 B    0.867    63 B    0.840    21 B    0.757
                            86 C    0.601    20 H    0.535    11 N    0.438
                             1 N    0.423
    20   1 H    0.986 --    19 Ir   0.535    86 C    0.352
    21   5 B    3.283 --    33 O    1.103    22 O    1.098    19 Ir   0.757
    22   8 O    2.196 --    21 B    1.098    23 C    0.940
    23   6 C    3.942 --    24 C    0.997    28 C    0.990    32 C    0.942
                            22 O    0.940
    24   6 C    3.993 --    23 C    0.997    26 H    0.983    27 H    0.983
                            25 H    0.981
    25   1 H    0.997 --    24 C    0.981
    26   1 H    0.997 --    24 C    0.983
    27   1 H    0.997 --    24 C    0.983
    28   6 C    3.996 --    23 C    0.990    31 H    0.984    30 H    0.984
                            29 H    0.984
    29   1 H    0.997 --    28 C    0.984
    30   1 H    0.998 --    28 C    0.984
    31   1 H    0.999 --    28 C    0.984
    32   6 C    3.941 --    38 C    0.997    34 C    0.991    23 C    0.942
                            33 O    0.939
    33   8 O    2.193 --    21 B    1.103    32 C    0.939
    34   6 C    3.994 --    32 C    0.991    35 H    0.984    36 H    0.984
                            37 H    0.983
    35   1 H    0.998 --    34 C    0.984
    36   1 H    0.997 --    34 C    0.984
    37   1 H    0.997 --    34 C    0.983
    38   6 C    3.994 --    32 C    0.997    41 H    0.984    39 H    0.983
                            40 H    0.983
    39   1 H    0.998 --    38 C    0.983
    40   1 H    0.997 --    38 C    0.983
    41   1 H    0.997 --    38 C    0.984
    42   5 B    3.338 --    43 O    1.148    54 O    1.092    19 Ir   0.867
    43   8 O    2.248 --    42 B    1.148    44 C    0.939
    44   6 C    3.936 --    49 C    0.996    45 C    0.990    43 O    0.939
                            53 C    0.938
    45   6 C    3.993 --    44 C    0.990    48 H    0.984    47 H    0.982
                            46 H    0.980
    46   1 H    0.997 --    45 C    0.980
    47   1 H    0.997 --    45 C    0.982
    48   1 H    0.997 --    45 C    0.984
    49   6 C    3.993 --    44 C    0.996    50 H    0.984    51 H    0.982
                            52 H    0.982
    50   1 H    0.997 --    49 C    0.984
    51   1 H    0.996 --    49 C    0.982
    52   1 H    0.997 --    49 C    0.982
    53   6 C    3.938 --    59 C    0.997    55 C    0.991    44 C    0.938
                            54 O    0.936
    54   8 O    2.209 --    42 B    1.092    53 C    0.936
    55   6 C    3.995 --    53 C    0.991    56 H    0.984    58 H    0.983
                            57 H    0.983
    56   1 H    0.998 --    55 C    0.984
    57   1 H    0.997 --    55 C    0.983
    58   1 H    0.996 --    55 C    0.983
    59   6 C    3.993 --    53 C    0.997    61 H    0.983    62 H    0.983
                            60 H    0.981
    60   1 H    0.997 --    59 C    0.981
    61   1 H    0.996 --    59 C    0.983
    62   1 H    0.997 --    59 C    0.983
    63   5 B    3.360 --    75 O    1.155    64 O    1.076    19 Ir   0.840
    64   8 O    2.211 --    63 B    1.076    65 C    0.939
    65   6 C    3.940 --    70 C    0.996    66 C    0.991    64 O    0.939
                            74 C    0.939
    66   6 C    3.993 --    65 C    0.991    69 H    0.983    68 H    0.983
                            67 H    0.981
    67   1 H    0.997 --    66 C    0.981
    68   1 H    0.997 --    66 C    0.983
    69   1 H    0.997 --    66 C    0.983
    70   6 C    3.992 --    65 C    0.996    72 H    0.983    71 H    0.983
                            73 H    0.983
    71   1 H    0.996 --    70 C    0.983
    72   1 H    0.996 --    70 C    0.983
    73   1 H    0.997 --    70 C    0.983
    74   6 C    3.934 --    76 C    0.996    80 C    0.990    65 C    0.939
                            75 O    0.936
    75   8 O    2.255 --    63 B    1.155    74 C    0.936
    76   6 C    3.992 --    74 C    0.996    77 H    0.983    78 H    0.983
                            79 H    0.982
    77   1 H    0.996 --    76 C    0.983
    78   1 H    0.997 --    76 C    0.983
    79   1 H    0.996 --    76 C    0.982
    80   6 C    3.995 --    74 C    0.990    83 H    0.983    81 H    0.983
                            82 H    0.983
    81   1 H    0.998 --    80 C    0.983
    82   1 H    0.998 --    80 C    0.983
    83   1 H    0.996 --    80 C    0.983
    84   1 H    0.996 --     4 C    0.969
    85   1 H    0.996 --    14 C    0.968
    86   6 C    3.930 --    88 C    1.422    87 C    1.278    19 Ir   0.601
                            20 H    0.352
    87   6 C    3.978 --    89 C    1.539    86 C    1.278    90 H    0.971
    88   6 C    3.896 --    86 C    1.422    92 C    1.132    91 O    1.047
                            89 C    0.107
    89   6 C    3.913 --    87 C    1.539    91 O    1.130    93 C    1.030
                            88 C    0.107
    90   1 H    0.998 --    87 C    0.971
    91   8 O    2.391 --    89 C    1.130    88 C    1.047
    92   6 C    3.936 --    94 O    1.687    88 C    1.132    95 C    0.998
    93   6 C    3.988 --    89 C    1.030    97 H    0.982    96 H    0.968
                            98 H    0.962
    94   8 O    1.995 --    92 C    1.687
    95   6 C    3.992 --    92 C    0.998   101 H    0.985   100 H    0.965
                            99 H    0.961
    96   1 H    0.992 --    93 C    0.968
    97   1 H    0.995 --    93 C    0.982
    98   1 H    0.992 --    93 C    0.962
    99   1 H    0.993 --    95 C    0.961
   100   1 H    0.994 --    95 C    0.965
   101   1 H    0.996 --    95 C    0.985
 ---------------------------------------------------------------------------

Topologies differ in total number of bonds
Writing topology from bond orders to xtbtopo.mol

molecular dipole:
                 x           y           z       tot (Debye)
 q only:       -1.759       0.149      -0.442
   full:       -2.907       0.202      -0.686       7.609
molecular quadrupole (traceless):
                xx          xy          yy          xz          yz          zz
 q only:       -0.801       6.284      -4.332     -10.930       7.482       5.133
  q+dip:       -0.905       7.021      -4.223      -8.733      10.313       5.128
   full:       -2.604       7.827      -3.119     -10.553       7.160       5.723


           -------------------------------------------------
          | TOTAL ENERGY             -147.744991670492 Eh   |
          | GRADIENT NORM               0.039672022153 Eh/α |
          | HOMO-LUMO GAP               0.793009226760 eV   |
           -------------------------------------------------

------------------------------------------------------------------------
 * finished run on 2022/01/14 at 15:09:01.783     
------------------------------------------------------------------------
 total:
 * wall-time:     0 d,  0 h,  0 min,  0.125 sec
 *  cpu-time:     0 d,  0 h,  0 min,  0.725 sec
 * ratio c/w:     5.815 speedup
 SCF:
 * wall-time:     0 d,  0 h,  0 min,  0.095 sec
 *  cpu-time:     0 d,  0 h,  0 min,  0.563 sec
 * ratio c/w:     5.944 speedup

