      -----------------------------------------------------------      
     |                   =====================                   |     
     |                           x T B                           |     
     |                   =====================                   |     
     |                         S. Grimme                         |     
     |          Mulliken Center for Theoretical Chemistry        |     
     |                    University of Bonn                     |     
      -----------------------------------------------------------      

   * xtb version 6.4.1 (1a32961) compiled by 'knkr256@seskscpg007.prim.scp' on 2021-10-19

   xtb is free software: you can redistribute it and/or modify it under
   the terms of the GNU Lesser General Public License as published by
   the Free Software Foundation, either version 3 of the License, or
   (at your option) any later version.
   
   xtb is distributed in the hope that it will be useful,
   but WITHOUT ANY WARRANTY; without even the implied warranty of
   MERCHANTABILITY or FITNESS FOR A PARTICULAR PURPOSE.  See the
   GNU Lesser General Public License for more details.
   
   Cite this work as:
   * C. Bannwarth, E. Caldeweyher, S. Ehlert, A. Hansen, P. Pracht,
     J. Seibert, S. Spicher, S. Grimme, WIREs Comput. Mol. Sci., 2020, 11,
     e01493. DOI: 10.1002/wcms.1493
   
   for GFN2-xTB:
   * C. Bannwarth, S. Ehlert and S. Grimme., J. Chem. Theory Comput., 2019,
     15, 1652-1671. DOI: 10.1021/acs.jctc.8b01176
   for GFN1-xTB:
   * S. Grimme, C. Bannwarth, P. Shushkov, J. Chem. Theory Comput., 2017,
     13, 1989-2009. DOI: 10.1021/acs.jctc.7b00118
   for GFN0-xTB:
   * P. Pracht, E. Caldeweyher, S. Ehlert, S. Grimme, ChemRxiv, 2019, preprint.
     DOI: 10.26434/chemrxiv.8326202.v1
   for GFN-FF:
   * S. Spicher and S. Grimme, Angew. Chem. Int. Ed., 2020, 59, 15665-15673.
     DOI: 10.1002/anie.202004239
   
   for ALPB and GBSA implicit solvation:
   * S. Ehlert, M. Stahn, S. Spicher, S. Grimme, J. Chem. Theory Comput.,
     2021, 17, 4250-4261. DOI: 10.1021/acs.jctc.1c00471
   
   for DFT-D4:
   * E. Caldeweyher, C. Bannwarth and S. Grimme, J. Chem. Phys., 2017,
     147, 034112. DOI: 10.1063/1.4993215
   * E. Caldeweyher, S. Ehlert, A. Hansen, H. Neugebauer, S. Spicher,
     C. Bannwarth and S. Grimme, J. Chem. Phys., 2019, 150, 154122.
     DOI: 10.1063/1.5090222
   * E. Caldeweyher, J.-M. Mewes, S. Ehlert and S. Grimme, Phys. Chem. Chem. Phys.
     2020, 22, 8499-8512. DOI: 10.1039/D0CP00502A
   
   for sTDA-xTB:
   * S. Grimme and C. Bannwarth, J. Chem. Phys., 2016, 145, 054103.
     DOI: 10.1063/1.4959605
   
   in the mass-spec context:
   * V. Asgeirsson, C. Bauer and S. Grimme, Chem. Sci., 2017, 8, 4879.
     DOI: 10.1039/c7sc00601b
   * J. Koopman and S. Grimme, ACS Omega 2019, 4, 12, 15120-15133.
     DOI: 10.1021/acsomega.9b02011
   
   for metadynamics refer to:
   * S. Grimme, J. Chem. Theory Comput., 2019, 155, 2847-2862
     DOI: 10.1021/acs.jctc.9b00143
   
   for SPH calculations refer to:
   * S. Spicher and S. Grimme, J. Chem. Theory Comput., 2021, 17, 1701-1714
     DOI: 10.1021/acs.jctc.0c01306
   
   with help from (in alphabetical order)
   P. Atkinson, C. Bannwarth, F. Bohle, G. Brandenburg, E. Caldeweyher
   M. Checinski, S. Dohm, S. Ehlert, S. Ehrlich, I. Gerasimov, J. Koopman
   C. Lavigne, S. Lehtola, F. März, M. Müller, F. Musil, H. Neugebauer
   J. Pisarek, C. Plett, P. Pracht, J. Seibert, P. Shushkov, S. Spicher
   M. Stahn, M. Steiner, T. Strunk, J. Stückrath, T. Rose, and J. Unsleber
   
 * started run on 2022/01/14 at 13:50:20.067     

           -------------------------------------------------
          |                Calculation Setup                |
           -------------------------------------------------

          program call               : xtb xtbopt.xyz --sp --alpb thf -P 6
          hostname                   : seskscpg007.prim.scp
          coordinate file            : xtbopt.xyz
          omp threads                :                     6
          number of atoms            :                    93
          number of electrons        :                   258
          charge                     :                     0
          spin                       :                   0.0
          first test random number   :      0.66337539646165

   ID    Z sym.   atoms
    1    7 N      1, 11
    2    6 C      2-6, 10, 12-15, 23, 24, 28, 32, 34, 38, 44, 45, 49, 53, 55,
                  59, 65, 66, 70, 74, 76, 80, 86-88, 91
    3    1 H      7-9, 16-18, 20, 25-27, 29-31, 35-37, 39-41, 46-48, 50-52,
                  56-58, 60-62, 67-69, 71-73, 77-79, 81-85, 92
    4   77 Ir     19
    5    5 B      21, 42, 63
    6    8 O      22, 33, 43, 54, 64, 75
    7   16 S      89
    8   17 Cl     90
    9   35 Br     93

molecular fragmentation (1/2 indicates fragments):
111111111111111111111111111111111111111111111111111111111111111111111111
111111111111122222222
# atoms in fragment 1/2:    85     8
 fragment masses (1/2) :      730.32      196.47
CMA distance (Bohr)    :   9.898
constraining FC (au)   :  0.0500

           -------------------------------------------------
          |                 G F N 2 - x T B                 |
           -------------------------------------------------

        Reference                      10.1021/acs.jctc.8b01176
      * Hamiltonian:
        H0-scaling (s, p, d)           1.850000    2.230000    2.230000
        zeta-weighting                 0.500000
      * Dispersion:
        s8                             2.700000
        a1                             0.520000
        a2                             5.000000
        s9                             5.000000
      * Repulsion:
        kExp                           1.500000    1.000000
        rExp                           1.000000
      * Coulomb:
        alpha                          2.000000
        third order                    shell-resolved
        anisotropic                    true
        a3                             3.000000
        a5                             4.000000
        cn-shift                       1.200000
        cn-exp                         4.000000
        max-rad                        5.000000

      * Solvation model:               ALPB
        Solvent                        thf
        Parameter file                 internal GFN2-xTB/ALPB
        Dielectric constant                7.6000E+00
        Reference state                gsolv [1 M gas/solution]
        Free energy shift                  5.3248E-03 Eh       3.3414E+00 kcal/mol
        Temperature                        2.9815E+02 K
        Density                            8.8300E-01 kg/L
        Solvent mass                       7.2106E+01 g/mol
        Interaction kernel             P16
        Born radius scaling (c1)           1.7311E+00
        Born radii integrator          GBOBC
        Born offset                        0.0000E+00 a0       0.0000E+00 AA
        H-bond correction              true
        Ion screening                  false
        Surface tension                    1.0000E-05 Eh       1.5569E+01 dyn/cm
        Grid points                               230 per atom
q/qsh data taken from xtbrestart
CAMM data taken from xtbrestart

          ...................................................
          :                      SETUP                      :
          :.................................................:
          :  # basis functions                 258          :
          :  # atomic orbitals                 254          :
          :  # shells                          144          :
          :  # electrons                       258          :
          :  max. iterations                   250          :
          :  Hamiltonian                  GFN2-xTB          :
          :  restarted?                       true          :
          :  GBSA solvation                   true          :
          :  PC potential                    false          :
          :  electronic temp.          300.0000000     K    :
          :  accuracy                    1.0000000          :
          :  -> integral cutoff          0.2500000E+02      :
          :  -> integral neglect         0.1000000E-07      :
          :  -> SCF convergence          0.1000000E-05 Eh   :
          :  -> wf. convergence          0.1000000E-03 e    :
          :  Broyden damping             0.4000000          :
          ...................................................

 iter      E             dE          RMSdq      gap      omega  full diag
   1   -143.6651208 -0.143665E+03  0.590E-05    0.95       0.0  T
   2   -143.6651208  0.427264E-09  0.865E-05    0.95     119.9  T
   3   -143.6651208 -0.521453E-09  0.389E-05    0.95     266.9  T

   *** convergence criteria satisfied after 3 iterations ***

         #    Occupation            Energy/Eh            Energy/eV
      -------------------------------------------------------------
         1        2.0000           -1.0642727             -28.9603
       ...           ...                  ...                  ...
       123        2.0000           -0.3818582             -10.3909
       124        2.0000           -0.3592435              -9.7755
       125        2.0000           -0.3421849              -9.3113
       126        2.0000           -0.3345258              -9.1029
       127        2.0000           -0.3314951              -9.0204
       128        2.0000           -0.3224375              -8.7740
       129        2.0000           -0.3192751              -8.6879 (HOMO)
       130                         -0.2843500              -7.7376 (LUMO)
       131                         -0.2571424              -6.9972
       132                         -0.2544896              -6.9250
       133                         -0.2526585              -6.8752
       134                         -0.2340576              -6.3690
       ...                                ...                  ...
       254                          3.8079073             103.6184
      -------------------------------------------------------------
                  HL-Gap            0.0349251 Eh            0.9504 eV
             Fermi-level           -0.3017958 Eh           -8.2123 eV

 SCC (total)                   0 d,  0 h,  0 min,  0.088 sec
 SCC setup                      ...        0 min,  0.003 sec (  3.467%)
 Dispersion                     ...        0 min,  0.002 sec (  2.633%)
 classical contributions        ...        0 min,  0.000 sec (  0.160%)
 integral evaluation            ...        0 min,  0.012 sec ( 13.581%)
 iterations                     ...        0 min,  0.035 sec ( 39.668%)
 molecular gradient             ...        0 min,  0.035 sec ( 39.650%)
 printout                       ...        0 min,  0.001 sec (  0.763%)

         :::::::::::::::::::::::::::::::::::::::::::::::::::::
         ::                     SUMMARY                     ::
         :::::::::::::::::::::::::::::::::::::::::::::::::::::
         :: total energy            -142.000875644941 Eh    ::
         :: total w/o Gsasa/hb      -141.960813455721 Eh    ::
         :: gradient norm              0.031721817942 Eh/a0 ::
         :: HOMO-LUMO gap              0.950359647903 eV    ::
         ::.................................................::
         :: SCC energy              -143.665120778710 Eh    ::
         :: -> isotropic ES            0.237206966688 Eh    ::
         :: -> anisotropic ES          0.006039950073 Eh    ::
         :: -> anisotropic XC          0.037378533409 Eh    ::
         :: -> dispersion             -0.138303919019 Eh    ::
         :: -> Gsolv                  -0.049517630739 Eh    ::
         ::    -> Gelec               -0.009455441519 Eh    ::
         ::    -> Gsasa               -0.042883713483 Eh    ::
         ::    -> Ghb                 -0.002503291181 Eh    ::
         ::    -> Gshift               0.005324815444 Eh    ::
         :: repulsion energy           1.655954827108 Eh    ::
         :: add. restraining           0.000000000000 Eh    ::
         :: total charge               0.000000000746 e     ::
         :::::::::::::::::::::::::::::::::::::::::::::::::::::

           -------------------------------------------------
          |                Property Printout                |
           -------------------------------------------------

    * Orbital Energies and Occupations

         #    Occupation            Energy/Eh            Energy/eV
      -------------------------------------------------------------
         1        2.0000           -1.0642727             -28.9603
       ...           ...                  ...                  ...
       117        2.0000           -0.4078089             -11.0970
       118        2.0000           -0.4007799             -10.9058
       119        2.0000           -0.3971783             -10.8078
       120        2.0000           -0.3920228             -10.6675
       121        2.0000           -0.3891414             -10.5891
       122        2.0000           -0.3875066             -10.5446
       123        2.0000           -0.3818582             -10.3909
       124        2.0000           -0.3592435              -9.7755
       125        2.0000           -0.3421849              -9.3113
       126        2.0000           -0.3345258              -9.1029
       127        2.0000           -0.3314951              -9.0204
       128        2.0000           -0.3224375              -8.7740
       129        2.0000           -0.3192751              -8.6879 (HOMO)
       130                         -0.2843500              -7.7376 (LUMO)
       131                         -0.2571424              -6.9972
       132                         -0.2544896              -6.9250
       133                         -0.2526585              -6.8752
       134                         -0.2340576              -6.3690
       135                         -0.2124640              -5.7814
       136                         -0.2098109              -5.7092
       137                         -0.1997086              -5.4343
       138                         -0.1698320              -4.6214
       139                         -0.1596736              -4.3449
       140                         -0.1474326              -4.0118
       ...                                ...                  ...
       254                          3.8079073             103.6184
      -------------------------------------------------------------
                  HL-Gap            0.0349251 Eh            0.9504 eV
             Fermi-level           -0.3017958 Eh           -8.2123 eV

     #   Z          covCN         q      C6AA      α(0)
     1   7 N        2.551    -0.117    23.579     7.212
     2   6 C        2.956     0.081    26.193     8.394
     3   6 C        2.918    -0.041    29.021     8.834
     4   6 C        2.924    -0.020    28.501     8.755
     5   6 C        2.915    -0.041    29.016     8.833
     6   6 C        2.893     0.049    26.907     8.505
     7   1 H        0.926     0.058     2.228     2.334
     8   1 H        0.926     0.062     2.175     2.306
     9   1 H        0.926     0.051     2.313     2.378
    10   6 C        2.954     0.078    26.255     8.404
    11   7 N        2.558    -0.122    23.671     7.226
    12   6 C        2.891     0.043    27.032     8.524
    13   6 C        2.915    -0.042    29.045     8.838
    14   6 C        2.923    -0.021    28.536     8.760
    15   6 C        2.919    -0.044    29.084     8.844
    16   1 H        0.926     0.050     2.316     2.380
    17   1 H        0.926     0.058     2.223     2.332
    18   1 H        0.926     0.080     1.975     2.198
    19  77 Ir       5.945    -0.150   387.517    36.403
    20   1 H        0.977     0.108     1.707     2.041
    21   5 B        2.636     0.408    15.939     6.739
    22   8 O        1.638    -0.404    20.937     6.176
    23   6 C        3.837     0.130    18.455     6.112
    24   6 C        3.755    -0.123    22.916     6.826
    25   1 H        0.925     0.055     2.258     2.350
    26   1 H        0.925     0.048     2.351     2.398
    27   1 H        0.925     0.053     2.283     2.363
    28   6 C        3.754    -0.111    22.682     6.791
    29   1 H        0.925     0.051     2.313     2.378
    30   1 H        0.925     0.043     2.405     2.425
    31   1 H        0.925     0.028     2.618     2.530
    32   6 C        3.842     0.130    18.443     6.109
    33   8 O        1.637    -0.398    20.821     6.159
    34   6 C        3.755    -0.123    22.919     6.826
    35   1 H        0.925     0.053     2.277     2.360
    36   1 H        0.925     0.048     2.340     2.392
    37   1 H        0.925     0.051     2.305     2.374
    38   6 C        3.754    -0.121    22.885     6.821
    39   1 H        0.925     0.048     2.348     2.396
    40   1 H        0.925     0.055     2.259     2.351
    41   1 H        0.925     0.048     2.349     2.397
    42   5 B        2.624     0.403    16.052     6.774
    43   8 O        1.637    -0.383    20.539     6.118
    44   6 C        3.838     0.129    18.465     6.113
    45   6 C        3.755    -0.126    22.984     6.836
    46   1 H        0.925     0.055     2.258     2.350
    47   1 H        0.925     0.057     2.230     2.335
    48   1 H        0.925     0.052     2.298     2.371
    49   6 C        3.755    -0.123    22.909     6.825
    50   1 H        0.925     0.051     2.311     2.377
    51   1 H        0.925     0.048     2.343     2.393
    52   1 H        0.925     0.053     2.288     2.365
    53   6 C        3.832     0.128    18.486     6.117
    54   8 O        1.637    -0.381    20.495     6.111
    55   6 C        3.755    -0.125    22.958     6.832
    56   1 H        0.925     0.055     2.253     2.347
    57   1 H        0.925     0.055     2.255     2.348
    58   1 H        0.925     0.050     2.317     2.380
    59   6 C        3.755    -0.121    22.871     6.819
    60   1 H        0.925     0.040     2.444     2.445
    61   1 H        0.925     0.056     2.252     2.347
    62   1 H        0.925     0.051     2.313     2.378
    63   5 B        2.626     0.402    16.054     6.773
    64   8 O        1.637    -0.379    20.447     6.104
    65   6 C        3.831     0.125    18.530     6.125
    66   6 C        3.755    -0.131    23.080     6.850
    67   1 H        0.925     0.059     2.208     2.324
    68   1 H        0.925     0.054     2.265     2.354
    69   1 H        0.925     0.052     2.293     2.368
    70   6 C        3.755    -0.130    23.052     6.846
    71   1 H        0.925     0.061     2.187     2.312
    72   1 H        0.925     0.052     2.290     2.367
    73   1 H        0.925     0.053     2.287     2.365
    74   6 C        3.829     0.127    18.500     6.120
    75   8 O        1.637    -0.375    20.380     6.094
    76   6 C        3.755    -0.125    22.962     6.833
    77   1 H        0.925     0.053     2.287     2.365
    78   1 H        0.925     0.055     2.253     2.347
    79   1 H        0.925     0.056     2.246     2.344
    80   6 C        3.755    -0.123    22.918     6.826
    81   1 H        0.925     0.041     2.430     2.438
    82   1 H        0.925     0.050     2.317     2.380
    83   1 H        0.925     0.057     2.240     2.340
    84   1 H        0.926     0.059     2.214     2.327
    85   1 H        0.926     0.056     2.247     2.344
    86   6 C        2.976    -0.060    29.477     8.906
    87   6 C        2.919     0.083    26.143     8.385
    88   6 C        3.146    -0.054    29.068     8.821
    89  16 S        2.482    -0.056   143.391    20.154
    90  17 Cl       1.020    -0.182   104.876    15.668
    91   6 C        2.926     0.076    26.313     8.412
    92   1 H        0.926     0.074     2.042     2.235
    93  35 Br       1.136    -0.141   188.938    22.163

 Mol. C6AA /au·bohr⁶  :     108989.984574
 Mol. C8AA /au·bohr⁸  :    3204766.304940
 Mol. α(0) /au        :        514.044492


Wiberg/Mayer (AO) data.
largest (>0.10) Wiberg bond orders for each atom

 ---------------------------------------------------------------------------
     #   Z sym  total        # sym  WBO       # sym  WBO       # sym  WBO
 ---------------------------------------------------------------------------
     1   7 N    3.404 --     6 C    1.393     2 C    1.322    19 Ir   0.430
     2   6 C    3.979 --     3 C    1.356     1 N    1.322    10 C    1.082
     3   6 C    3.988 --     4 C    1.476     2 C    1.356     9 H    0.961
                             6 C    0.106
     4   6 C    3.985 --     3 C    1.476     5 C    1.393    84 H    0.968
     5   6 C    3.979 --     6 C    1.454     4 C    1.393     8 H    0.968
     6   6 C    3.977 --     5 C    1.454     1 N    1.393     7 H    0.957
                             3 C    0.106
     7   1 H    0.996 --     6 C    0.957
     8   1 H    0.995 --     5 C    0.968
     9   1 H    0.997 --     3 C    0.961
    10   6 C    3.978 --    15 C    1.361    11 N    1.314     2 C    1.082
    11   7 N    3.418 --    12 C    1.394    10 C    1.314    19 Ir   0.428
    12   6 C    3.971 --    13 C    1.448    11 N    1.394    18 H    0.946
                            15 C    0.105
    13   6 C    3.981 --    12 C    1.448    14 C    1.397    17 H    0.968
    14   6 C    3.983 --    15 C    1.470    13 C    1.397    85 H    0.968
    15   6 C    3.989 --    14 C    1.470    10 C    1.361    16 H    0.961
                            12 C    0.105
    16   1 H    0.997 --    15 C    0.961
    17   1 H    0.996 --    13 C    0.968
    18   1 H    0.993 --    12 C    0.946
    19  77 Ir   5.150 --    42 B    0.852    63 B    0.843    21 B    0.743
                            20 H    0.572    86 C    0.557     1 N    0.430
                            11 N    0.428
    20   1 H    0.986 --    19 Ir   0.572    86 C    0.314
    21   5 B    3.284 --    33 O    1.121    22 O    1.100    19 Ir   0.743
    22   8 O    2.199 --    21 B    1.100    23 C    0.939
    23   6 C    3.941 --    24 C    0.997    28 C    0.991    32 C    0.941
                            22 O    0.939
    24   6 C    3.993 --    23 C    0.997    26 H    0.983    27 H    0.983
                            25 H    0.982
    25   1 H    0.997 --    24 C    0.982
    26   1 H    0.997 --    24 C    0.983
    27   1 H    0.997 --    24 C    0.983
    28   6 C    3.996 --    23 C    0.991    31 H    0.985    30 H    0.984
                            29 H    0.984
    29   1 H    0.997 --    28 C    0.984
    30   1 H    0.998 --    28 C    0.984
    31   1 H    0.999 --    28 C    0.985
    32   6 C    3.938 --    38 C    0.997    34 C    0.991    23 C    0.941
                            33 O    0.936
    33   8 O    2.209 --    21 B    1.121    32 C    0.936
    34   6 C    3.993 --    32 C    0.991    36 H    0.983    37 H    0.982
                            35 H    0.981
    35   1 H    0.997 --    34 C    0.981
    36   1 H    0.997 --    34 C    0.983
    37   1 H    0.997 --    34 C    0.982
    38   6 C    3.994 --    32 C    0.997    41 H    0.983    39 H    0.983
                            40 H    0.983
    39   1 H    0.998 --    38 C    0.983
    40   1 H    0.997 --    38 C    0.983
    41   1 H    0.997 --    38 C    0.983
    42   5 B    3.337 --    43 O    1.122    54 O    1.116    19 Ir   0.852
    43   8 O    2.227 --    42 B    1.122    44 C    0.932
    44   6 C    3.935 --    45 C    0.997    49 C    0.991    53 C    0.939
                            43 O    0.932
    45   6 C    3.992 --    44 C    0.997    48 H    0.983    46 H    0.982
                            47 H    0.982
    46   1 H    0.997 --    45 C    0.982
    47   1 H    0.996 --    45 C    0.982
    48   1 H    0.996 --    45 C    0.983
    49   6 C    3.993 --    44 C    0.991    50 H    0.983    51 H    0.982
                            52 H    0.980
    50   1 H    0.996 --    49 C    0.983
    51   1 H    0.997 --    49 C    0.982
    52   1 H    0.997 --    49 C    0.980
    53   6 C    3.936 --    55 C    0.996    59 C    0.992    44 C    0.939
                            54 O    0.930
    54   8 O    2.233 --    42 B    1.116    53 C    0.930
    55   6 C    3.992 --    53 C    0.996    58 H    0.983    57 H    0.983
                            56 H    0.982
    56   1 H    0.997 --    55 C    0.982
    57   1 H    0.997 --    55 C    0.983
    58   1 H    0.996 --    55 C    0.983
    59   6 C    3.994 --    53 C    0.992    62 H    0.983    61 H    0.983
                            60 H    0.982
    60   1 H    0.998 --    59 C    0.982
    61   1 H    0.996 --    59 C    0.983
    62   1 H    0.997 --    59 C    0.983
    63   5 B    3.369 --    75 O    1.129    64 O    1.113    19 Ir   0.843
    64   8 O    2.230 --    63 B    1.113    65 C    0.935
    65   6 C    3.936 --    70 C    0.997    66 C    0.992    74 C    0.938
                            64 O    0.935
    66   6 C    3.992 --    65 C    0.992    69 H    0.983    68 H    0.982
                            67 H    0.979
    67   1 H    0.996 --    66 C    0.979
    68   1 H    0.997 --    66 C    0.982
    69   1 H    0.996 --    66 C    0.983
    70   6 C    3.992 --    65 C    0.997    72 H    0.983    73 H    0.982
                            71 H    0.982
    71   1 H    0.996 --    70 C    0.982
    72   1 H    0.996 --    70 C    0.983
    73   1 H    0.997 --    70 C    0.982
    74   6 C    3.933 --    76 C    0.996    80 C    0.992    65 C    0.938
                            75 O    0.933
    75   8 O    2.242 --    63 B    1.129    74 C    0.933
    76   6 C    3.992 --    74 C    0.996    77 H    0.983    78 H    0.982
                            79 H    0.981
    77   1 H    0.996 --    76 C    0.983
    78   1 H    0.997 --    76 C    0.982
    79   1 H    0.997 --    76 C    0.981
    80   6 C    3.994 --    74 C    0.992    81 H    0.984    83 H    0.983
                            82 H    0.983
    81   1 H    0.998 --    80 C    0.984
    82   1 H    0.997 --    80 C    0.983
    83   1 H    0.996 --    80 C    0.983
    84   1 H    0.996 --     4 C    0.968
    85   1 H    0.996 --    14 C    0.968
    86   6 C    3.921 --    87 C    1.563    88 C    1.198    19 Ir   0.557
                            20 H    0.314
    87   6 C    3.846 --    86 C    1.563    89 S    1.078    90 Cl   0.971
    88   6 C    3.983 --    91 C    1.611    86 C    1.198    92 H    0.951
                            89 S    0.103
    89  16 S    2.569 --    91 C    1.136    87 C    1.078    88 C    0.103
    90  17 Cl   1.122 --    87 C    0.971
    91   6 C    3.894 --    88 C    1.611    89 S    1.136    93 Br   0.995
    92   1 H    0.994 --    88 C    0.951
    93  35 Br   1.134 --    91 C    0.995
 ---------------------------------------------------------------------------

Topologies differ in total number of bonds
Writing topology from bond orders to xtbtopo.mol

molecular dipole:
                 x           y           z       tot (Debye)
 q only:        0.632       1.144      -2.623
   full:       -0.982       1.264      -3.795      10.469
molecular quadrupole (traceless):
                xx          xy          yy          xz          yz          zz
 q only:       22.749      -3.135       5.991       3.537      24.104     -28.740
  q+dip:       31.879      -0.545      16.488      -5.891      30.757     -48.367
   full:       30.218       0.969      16.740      -6.496      28.145     -46.959


           -------------------------------------------------
          | TOTAL ENERGY             -142.000875644941 Eh   |
          | GRADIENT NORM               0.031721817942 Eh/α |
          | HOMO-LUMO GAP               0.950359647903 eV   |
           -------------------------------------------------

------------------------------------------------------------------------
 * finished run on 2022/01/14 at 13:50:20.188     
------------------------------------------------------------------------
 total:
 * wall-time:     0 d,  0 h,  0 min,  0.121 sec
 *  cpu-time:     0 d,  0 h,  0 min,  0.704 sec
 * ratio c/w:     5.807 speedup
 SCF:
 * wall-time:     0 d,  0 h,  0 min,  0.090 sec
 *  cpu-time:     0 d,  0 h,  0 min,  0.533 sec
 * ratio c/w:     5.943 speedup

