93
 energy: -141.984138033395 gnorm: 0.078065367483 xtb: 6.4.1 (1a32961)
N        -0.96510000000000   -2.11530000000000   -0.24090000000000
C        -2.24700000000000   -1.69840000000000   -0.36220000000000
C        -3.14040000000000   -2.36820000000001   -1.21200000000000
C        -2.70220000000000   -3.47560000000001   -1.93050000000000
C        -1.37780000000000   -3.89880000000000   -1.78760000000000
C        -0.54290000000000   -3.18670000000000   -0.93510000000000
H         0.49810000000000   -3.45630000000000   -0.78940000000000
H        -0.99570000000000   -4.76030000000000   -2.32770000000000
H        -4.16500000000000   -2.02890000000000   -1.31830000000000
C        -2.62130000000000   -0.50950000000000    0.44100000000000
N        -1.62600000000000    0.07330000000000    1.16020000000000
C        -1.89680000000000    1.15240000000000    1.91690000000000
C        -3.17230000000000    1.70330000000000    1.99650000000000
C        -4.20510000000000    1.11740000000000    1.26270000000000
C        -3.92610000000000    0.00250000000000    0.47820000000000
H        -4.71960000000000   -0.46420000000000   -0.09520000000000
H        -3.34630000000000    2.57510000000000    2.62070000000000
H        -1.04450000000000    1.57420000000000    2.43690000000000
Ir        0.42150000000000   -0.81650000000000    0.91330000000000
H         0.87260000000000   -2.23030000000000    1.54050000000000
B         0.50670000000000    0.41560000000000   -0.81540000000000
O         0.19500000000000   -0.04700000000000   -2.09150000000000
C         0.00650000000000    1.10040000000000   -2.95430000000000
C         0.49020000000000    0.74740000000000   -4.35780000000000
H         1.51610000000000    0.37380000000000   -4.33700000000000
H         0.44730000000000    1.62240000000000   -5.01670000000000
H        -0.14740000000000   -0.03390000000000   -4.78430000000000
C        -1.50120000000000    1.39560000000000   -2.96670000000000
H        -1.75370000000000    2.21460000000000   -3.64850000000000
H        -2.03200000000000    0.49450000000000   -3.28930000000000
H        -1.85170000000000    1.65210000000000   -1.96220000000000
C         0.84230000000000    2.20670000000000   -2.22040000000000
O         0.75200000000000    1.78260000000000   -0.83690000000000
C         2.32930000000000    2.18620000000000   -2.59900000000000
H         2.74130000000000    1.18500000000000   -2.45750000000000
H         2.48870000000000    2.51300000000000   -3.63180000000000
H         2.87200000000000    2.86270000000000   -1.93200000000000
C         0.28440000000000    3.62290000000000   -2.33660000000000
H        -0.72650000000000    3.69040000000000   -1.92910000000000
H         0.92130000000000    4.31480000000000   -1.77610000000000
H         0.26430000000000    3.94810000000000   -3.38320000000000
B         1.56300000000000    0.60960000000000    1.84840000000000
O         2.92780000000000    0.55230000000000    2.15020000000000
C         3.36330000000000    1.88660000000000    2.50260000000000
C         4.53140000000000    1.78590000000000    3.47740000000000
H         4.27910000000000    1.16090000000000    4.33690000000000
H         5.39390000000000    1.33790000000000    2.97340000000000
H         4.82390000000000    2.77870000000000    3.83820000000000
C         3.79700000000000    2.56850000000000    1.19670000000000
H         4.20020000000000    3.57090000000000    1.37680000000000
H         4.56740000000000    1.95560000000000    0.72110000000000
H         2.95240000000000    2.63260000000000    0.50540000000000
C         2.05040000000000    2.50090000000000    3.09320000000000
O         1.03750000000000    1.81620000000000    2.31910000000000
C         1.89100000000000    4.00450000000000    2.88650000000000
H         1.87290000000000    4.25440000000000    1.82410000000000
H         0.94940000000000    4.34260000000000    3.33170000000000
H         2.71080000000000    4.55150000000000    3.36630000000000
C         1.82470000000000    2.13200000000000    4.56520000000000
H         1.92610000000000    1.05330000000000    4.71320000000000
H         2.52610000000000    2.65280000000000    5.22540000000000
H         0.80630000000000    2.41580000000000    4.84900000000000
B         2.27820000000000   -1.33090000000000    0.17410000000000
O         2.89460000000000   -2.57740000000000    0.38450000000000
C         4.26930000000000   -2.48200000000000   -0.07210000000000
C         5.10900000000000   -2.05380000000000    1.14010000000000
H         4.76350000000000   -1.08740000000000    1.51750000000000
H         4.98050000000000   -2.79470000000000    1.93590000000000
H         6.17420000000000   -1.99290000000000    0.89300000000000
C         4.71950000000000   -3.84660000000000   -0.58470000000000
H         4.75280000000000   -4.56130000000000    0.24420000000000
H         5.72330000000000   -3.78370000000000   -1.02010000000000
H         4.03500000000000   -4.23600000000000   -1.34170000000000
C         4.16440000000000   -1.36220000000000   -1.16300000000000
O         3.08520000000000   -0.55030000000000   -0.65400000000000
C         5.40720000000000   -0.48870000000000   -1.31550000000000
H         6.27320000000000   -1.09010000000000   -1.61530000000000
H         5.23300000000000    0.26930000000000   -2.08590000000000
H         5.64270000000000    0.02650000000000   -0.38240000000000
C         3.71800000000000   -1.89830000000000   -2.53110000000000
H         2.82530000000000   -2.52160000000000   -2.42740000000000
H         3.46090000000000   -1.05250000000000   -3.17550000000000
H         4.50570000000000   -2.48290000000000   -3.01790000000000
H        -3.38500000000000   -4.00130000000000   -2.59310000000000
H        -5.21400000000000    1.52080000000000    1.29960000000000
C         0.23590000000000   -1.68140000000000    2.96030000000000
C        -0.96884737926872   -2.08150122899332    3.48219236344183
C         1.25165381451598   -1.91185090529095    3.93523354989475
S        -0.92295184931658   -2.62881410232431    5.11878706303085
Cl       -2.52293872970245   -2.22539359390385    2.75882606853411
C         0.77861534989717   -2.41584634697341    5.10863061881970
H         2.29455375735848   -1.73995332305274    3.72951826850238
Br        1.77091953264874   -2.94668235195442    6.60997563820133
93
 energy: -141.991962934256 gnorm: 0.047051033446 xtb: 6.4.1 (1a32961)
N        -0.96054132434745   -2.09155228540007   -0.26435496293877
C        -2.23386834183410   -1.67386099418660   -0.38583118658315
C        -3.13227094378380   -2.35532030764212   -1.21478426124547
C        -2.70407295420755   -3.46313451503061   -1.92358827757232
C        -1.38561900227461   -3.88277190731474   -1.78375761769341
C        -0.55500631595934   -3.16633546726942   -0.94331072031523
H         0.47825743962467   -3.44734205012632   -0.79126036613171
H        -1.00962434525529   -4.74448394766994   -2.31649055916296
H        -4.15353932438373   -2.02173167950574   -1.31636141788972
C        -2.60216615881972   -0.48201881801077    0.39852622912463
N        -1.61077682652660    0.10482520134243    1.10337952558519
C        -1.89478434100169    1.15516914999913    1.87531786805508
C        -3.16686525482919    1.69154204444348    1.97983498388863
C        -4.19544301953996    1.10854250642316    1.25088172896239
C        -3.91011499177982    0.01057509244841    0.45839024823911
H        -4.70426074067459   -0.46364016075544   -0.09775796916222
H        -3.34439664721155    2.54753629921848    2.61575821138118
H        -1.05372175977610    1.56627743174011    2.41414745002099
Ir        0.42150000000000   -0.81650000000000    0.91330000000000
H         0.87260000000000   -2.23030000000000    1.54050000000000
B         0.50226790786672    0.41543484755791   -0.79617804635397
O         0.17848378525047   -0.03915051806433   -2.06673838211128
C         0.01228910849025    1.09581915479945   -2.94411721923174
C         0.49161948897187    0.74830439106731   -4.34935193775608
H         1.51063497811687    0.37184149928675   -4.32813893677812
H         0.44670909309251    1.62443857002558   -4.99666317773202
H        -0.14699079542511   -0.02717110230540   -4.77069333063915
C        -1.49183726603471    1.39898720729063   -2.96976115886410
H        -1.72996310881524    2.21256996109301   -3.65315000411387
H        -2.02240461884295    0.50268181041773   -3.29089550464239
H        -1.83914541409762    1.65356528283630   -1.96822408741242
C         0.83424482342948    2.20455076990523   -2.21060408248964
O         0.75896466082288    1.77205877249391   -0.83411631375575
C         2.31681712378012    2.19015045323406   -2.59807611689596
H         2.72216027076997    1.19128764894959   -2.44974881106017
H         2.46786279708304    2.51311009050902   -3.62727351717478
H         2.85855822253370    2.86477032957611   -1.93620242861296
C         0.28239390529256    3.62099414377717   -2.33623916727205
H        -0.72133151677609    3.69061459567354   -1.92519514919437
H         0.92163943069615    4.30497888450545   -1.77958686264582
H         0.26538462343478    3.93436422371081   -3.38016922089275
B         1.56717144029817    0.61442520660317    1.86059295646006
O         2.92560256245631    0.56145581329865    2.14263793353447
C         3.36358671187184    1.88478211179673    2.51186781382795
C         4.53290565151091    1.78760277035212    3.48286560103749
H         4.28148220518550    1.16018795572156    4.33393252516533
H         5.38788420949282    1.34316620055602    2.97530898318811
H         4.81535811632688    2.77801031721683    3.83820296961576
C         3.79867390970813    2.57114674726952    1.21251321478269
H         4.20000785206622    3.56670113381005    1.39667177861265
H         4.56306990113379    1.95997019205707    0.73585341111576
H         2.95096713668957    2.62435025580973    0.53058683122465
C         2.05290905789196    2.50359670864351    3.09085871606469
O         1.04086086439485    1.80589228391718    2.33725152146755
C         1.89318506584184    4.00549199392036    2.89001588155189
H         1.86872225708957    4.24923180632368    1.83173451830593
H         0.95563256259165    4.33489925742034    3.33624737182810
H         2.71325490174593    4.54151806692110    3.36689244729334
C         1.83007676180738    2.13907279349396    4.56279920188378
H         1.93401225135664    1.06349638041849    4.70155602424681
H         2.53038861151176    2.65980102408970    5.21292328918814
H         0.81527370549932    2.41712717387218    4.84720350619569
B         2.27820000000001   -1.33090000000001    0.17410000000000
O         2.89995290533804   -2.56101009504436    0.39305730547918
C         4.26516471723242   -2.48368827504167   -0.07670674962787
C         5.10933628841448   -2.05918921028210    1.12951387777230
H         4.75404827006854   -1.09884180405043    1.50108455587970
H         4.97918612171061   -2.79540354683317    1.92196544090265
H         6.16688873147449   -1.99940243438854    0.87793376582402
C         4.71932252408851   -3.84585014687143   -0.58695436243662
H         4.74935525493474   -4.55075326433255    0.24257344191985
H         5.71713756001405   -3.77416001601343   -1.01871339521094
H         4.03409699346481   -4.23301793311721   -1.33623733471948
C         4.16593269529140   -1.36049555477902   -1.15704203736399
O         3.07273157106968   -0.56378181088405   -0.66122229095295
C         5.40916221580065   -0.49195709375444   -1.31375227133029
H         6.26526893007347   -1.09764817589588   -1.60945446051577
H         5.23132637476623    0.25927108579718   -2.08197594144592
H         5.63717479300263    0.02213575699940   -0.38457106952461
C         3.72902693795246   -1.89904862203288   -2.52542602734391
H         2.83698215770095   -2.51466222094965   -2.41786816703557
H         3.47242464008306   -1.05722299392881   -3.16705881473879
H         4.51925048468816   -2.47586035415494   -3.00289338667854
H        -3.38422190757517   -3.98953157163804   -2.57923764935323
H        -5.20204936705684    1.50205980771519    1.29971567852265
C         0.23590000000002   -1.68139999999999    2.96029999999999
C        -0.96005268596893   -2.09354815732818    3.48915375742892
C         1.26032341481972   -1.89278772529437    3.93368005646668
S        -0.89798313984814   -2.63427950597574    5.13925565990402
Cl       -2.51514371267346   -2.26576812703167    2.77227909417214
C         0.80583873383608   -2.39485139564391    5.11159776964067
H         2.29827906886487   -1.70887409267658    3.72386780945600
Br        1.81383816687407   -2.90513406977276    6.61354071341509
93
 energy: -141.994636111546 gnorm: 0.035490413691 xtb: 6.4.1 (1a32961)
N        -0.95318334767596   -2.07949991428587   -0.27837114780905
C        -2.21932405929676   -1.65571178031684   -0.40407439938928
C        -3.12272956213189   -2.33431071613249   -1.22758459680585
C        -2.70650669452949   -3.44700640470638   -1.92798833373569
C        -1.39080623278301   -3.86958956062105   -1.78890863652826
C        -0.56060307797893   -3.15345282818735   -0.95291564447784
H         0.46844138048191   -3.44407810365941   -0.80108812350172
H        -1.02236717010870   -4.73470076265720   -2.31432916946771
H        -4.14259473831505   -2.00242380809875   -1.32077632728926
C        -2.58621255213812   -0.47559394960608    0.38187350148686
N        -1.60004667383530    0.10724152611298    1.08727799368042
C        -1.88915455714077    1.15342776284303    1.84972839172588
C        -3.15834932945110    1.68683694960670    1.96143308826729
C        -4.18557977703926    1.10340293743221    1.23381027181014
C        -3.89390397415917    0.01425848430368    0.43865010411171
H        -4.68484726147787   -0.46206880908857   -0.11471033030570
H        -3.34012854837477    2.52834446816765    2.60989064642020
H        -1.05353041521653    1.57088871768952    2.38822173836862
Ir        0.42150000000000   -0.81650000000001    0.91330000000000
H         0.87260000000000   -2.23030000000000    1.54050000000000
B         0.50894656262530    0.41777627423114   -0.77866912797944
O         0.16276038950039   -0.03325253062149   -2.04113324613290
C         0.01153659094483    1.09186911045812   -2.92584951482645
C         0.49551463758286    0.74344428626062   -4.32943003422598
H         1.51053864402467    0.36366489299380   -4.30974733300830
H         0.45006266125882    1.62400084233802   -4.96441956890170
H        -0.14674539728278   -0.02501347211467   -4.75046886468285
C        -1.49060069026733    1.40458048630149   -2.96979287975453
H        -1.70929679867060    2.21546396800130   -3.65724482363701
H        -2.02105429980953    0.51188491183944   -3.29330643374375
H        -1.83997104552222    1.66108330337983   -1.97203350500756
C         0.82994365050311    2.20080287772668   -2.19549523847137
O         0.76882743062982    1.76662319464449   -0.82496008688787
C         2.30955655242009    2.19403339167861   -2.59389017814436
H         2.71273872354536    1.19710685955921   -2.44036939371004
H         2.44641439117498    2.51199104481269   -3.62295071677381
H         2.85016813596412    2.87236021585064   -1.93909245687846
C         0.27568757863513    3.61601006050029   -2.32670726344158
H        -0.72380502009164    3.69131089554968   -1.91284123198243
H         0.92002988838253    4.29748155062146   -1.77869826042721
H         0.26010232475179    3.91355797448294   -3.37141465381633
B         1.57315192417061    0.61662112102508    1.87385992115911
O         2.92518299756154    0.56786596101814    2.13756325967317
C         3.36309113649451    1.88268361328396    2.51977760055322
C         4.53095732579553    1.78650478803387    3.49291477171584
H         4.28330719249370    1.15531660616566    4.33887567385191
H         5.38302020452016    1.34891788805259    2.98110217815306
H         4.80288024296811    2.77659644606358    3.84529456532152
C         3.80223072955383    2.57763563367946    1.22710445999115
H         4.19986170313027    3.56891706471934    1.41910718833626
H         4.56550796118915    1.96916298103827    0.75065795398548
H         2.95271713042736    2.62436244744154    0.55040384518951
C         2.05356507137765    2.50046585052274    3.09524138212077
O         1.04427616209416    1.79331481518652    2.35506907208426
C         1.89479308656230    4.00180324409554    2.89182506926748
H         1.86334710629058    4.24371299190035    1.83584950978446
H         0.96192697684750    4.32677831094786    3.34335762740662
H         2.71763351243772    4.52875874611428    3.36497991623834
C         1.83920183168092    2.14498478107489    4.57115961544447
H         1.94688071426939    1.07125856318768    4.70430485029852
H         2.54056913162975    2.66965677528027    5.21068617668059
H         0.82607299691540    2.41898404374725    4.85531748974231
B         2.27820000000002   -1.33090000000001    0.17410000000000
O         2.90146276292756   -2.54722686656791    0.40373682096028
C         4.25785862244271   -2.48223962636297   -0.07619676473253
C         5.11292339047560   -2.06271380920608    1.12326658659643
H         4.75214676135612   -1.10598104375781    1.49232554385824
H         4.98372229580135   -2.79814190949402    1.91256404586672
H         6.16436565901857   -2.00382711841374    0.86284480181755
C         4.71040589073335   -3.84386637618686   -0.58964584649446
H         4.74231239655709   -4.54226268147014    0.24096269091155
H         5.70405761839227   -3.76246922229737   -1.01949368827157
H         4.02537428224908   -4.23185153158034   -1.33457398356183
C         4.16183185411663   -1.36051341609831   -1.15378702050762
O         3.05949629690510   -0.57406483360996   -0.66855439375934
C         5.40623891172221   -0.49354743125557   -1.30568783293594
H         6.25395674975848   -1.10669184617453   -1.59578598139668
H         5.22979033118549    0.25098486352853   -2.07625675925618
H         5.63040711947715    0.02190642305885   -0.37950429922664
C         3.74013596056991   -1.90169186855994   -2.52625568470611
H         2.84896344344843   -2.51391346320564   -2.41836816820245
H         3.48774715305016   -1.06138619191311   -3.16751215814506
H         4.53672069915030   -2.47347858994441   -2.99042529066882
H        -3.39086652701947   -3.97835271468677   -2.57023951187536
H        -5.19343427491489    1.48426785581048    1.29480555807193
C         0.23590000000004   -1.68139999999998    2.96029999999998
C        -0.94987128119486   -2.10420465834576    3.48969529308280
C         1.27017794740435   -1.86311669007203    3.93248424360166
S        -0.87150492799230   -2.64046726039428    5.15480994294540
Cl       -2.49945104033937   -2.26739710391976    2.75861041060963
C         0.83464967645492   -2.36211326085892    5.11496028030439
H         2.30296453046882   -1.65702279727634    3.71858394947523
Br        1.86963334071734   -2.82609031588809    6.61841001028611
93
 energy: -141.995865619530 gnorm: 0.034087056203 xtb: 6.4.1 (1a32961)
N        -0.94341364167432   -2.06982803119170   -0.29656944235781
C        -2.20746219956290   -1.64019218474978   -0.42469751317271
C        -3.11677181726556   -2.31832550147915   -1.24303241189602
C        -2.70915923293193   -3.43784162860444   -1.93714559731805
C        -1.39349668660292   -3.86512774359110   -1.79892440860739
C        -0.55834512781439   -3.14756979403758   -0.96795505209921
H         0.46901799323044   -3.44586049820876   -0.81695761925287
H        -1.03128956480120   -4.73570663870131   -2.31886615868030
H        -4.13404995203422   -1.97913000078269   -1.33703386330015
C        -2.57048915333442   -0.45799697200722    0.35445009997243
N        -1.58575688204024    0.12459581063674    1.06236295091345
C        -1.88005255243186    1.16519384383520    1.82968949003073
C        -3.15315370130687    1.68865134294911    1.95186199875387
C        -4.18018906679836    1.10272803550792    1.22313612214611
C        -3.88140882871613    0.02454746683937    0.41588590995627
H        -4.66982076136875   -0.45414052929476   -0.13883276932954
H        -3.33819531540602    2.52324823872688    2.60708136802933
H        -1.04718995903920    1.58892124620644    2.36824875374450
Ir        0.42150000000000   -0.81650000000001    0.91330000000000
H         0.87260000000000   -2.23030000000000    1.54050000000000
B         0.50230535874153    0.42531196220125   -0.76336510675183
O         0.14679419512412   -0.02861496046029   -2.02126991056724
C         0.00734974596960    1.09094112971609   -2.90933652941524
C         0.49877864723645    0.73628115524905   -4.30956305772244
H         1.51171029051960    0.35122248842754   -4.28555577162314
H         0.45957509726152    1.61889534684641   -4.94162103756272
H        -0.14667413115838   -0.02819728157817   -4.73292063183370
C        -1.49360864260045    1.41207632969020   -2.96893873789919
H        -1.69696083922002    2.22256505560922   -3.66117394893802
H        -2.02515251402044    0.52156481141485   -3.29638757675921
H        -1.85125896208115    1.67322277757817   -1.97543370030905
C         0.82723106069024    2.20027666280983   -2.18068290468798
O         0.77567043538866    1.76892784580591   -0.81222746643148
C         2.30516701565887    2.19755841692813   -2.58875759578348
H         2.71159116204942    1.20255049430019   -2.43154234318933
H         2.43163763164438    2.51018270473510   -3.62043322055744
H         2.84611193672984    2.88232347577790   -1.94108114046998
C         0.26976987018155    3.61481560464681   -2.31415891919426
H        -0.72777259408749    3.69267314919031   -1.89613782502266
H         0.91783711371256    4.29929448923037   -1.77434726128505
H         0.24963260619714    3.90228871407598   -3.36138524065421
B         1.57698871640096    0.61662407217658    1.88040400777499
O         2.92733335947023    0.56993012771891    2.13286857007978
C         3.36368470143129    1.88055991661116    2.52580648873429
C         4.53015297123374    1.78310615651536    3.50210856235239
H         4.28483694375544    1.14710788010737    4.34517411953322
H         5.38503946862323    1.35280230177765    2.98877646769770
H         4.79462254456560    2.77373408530906    3.85823582544912
C         3.80660703809222    2.58506264898471    1.23862059370899
H         4.20015705012456    3.57583435055566    1.43927047777516
H         4.57347146596924    1.98098970362332    0.76228679082111
H         2.95839304109924    2.63208695461397    0.56057216907347
C         2.05395216611936    2.49606155524536    3.10315163553845
O         1.04454902605720    1.78327725246554    2.37164371952491
C         1.89320104392625    3.99743798712091    2.89488710075909
H         1.85459363476398    4.23741073234846    1.83858199144744
H         0.96395686995824    4.32351846093735    3.35305855461769
H         2.72065636195348    4.52267312415539    3.36142050798437
C         1.84861506354458    2.14895759186119    4.58343707392171
H         1.96074219441597    1.07630629260754    4.72017235407613
H         2.55241838486105    2.68027607200430    5.21441385507646
H         0.83597457517543    2.42130063785353    4.87015483335602
B         2.27820000000003   -1.33090000000002    0.17410000000000
O         2.90219566890283   -2.54055891126586    0.41461405396542
C         4.25284414561726   -2.48126951643816   -0.07396403895175
C         5.11817289916705   -2.06470859760460    1.12036601955925
H         4.75892537107750   -1.10857193406179    1.49217925112089
H         4.99312582502012   -2.80185272307500    1.90860766405512
H         6.16699316419907   -2.00625127910344    0.85111052535295
C         4.70025362033986   -3.84463827046983   -0.59012370436854
H         4.73573259320907   -4.54208886716185    0.24102158489818
H         5.69193967037591   -3.76012550185878   -1.02324315495176
H         4.01259252593015   -4.23266459108082   -1.33261007527025
C         4.15801064349525   -1.36100855902874   -1.15316995873275
O         3.05009910279460   -0.57884674333207   -0.67706883472227
C         5.40260994394872   -0.49208910060751   -1.29801466440185
H         6.24973428306465   -1.10934547745269   -1.58058703765001
H         5.23099433249817    0.24905265491980   -2.07282288755525
H         5.62184170237246    0.02605772655971   -0.37218174756407
C         3.75019253755450   -1.90483178711753   -2.52983748023495
H         2.85929336632678   -2.51817655071442   -2.42832600001550
H         3.50384542630759   -1.06507124704184   -3.17417294506241
H         4.55369312995226   -2.47531389509293   -2.98288666989729
H        -3.39886781949291   -3.97108203120156   -2.57187028025645
H        -5.19085018447944    1.47441857939768    1.29074756119152
C         0.23590000000006   -1.68139999999997    2.96029999999996
C        -0.93730468068963   -2.11870909006619    3.49901207605410
C         1.28219395121166   -1.82884472256782    3.92828251264347
S        -0.83835000166319   -2.64015305719918    5.17653153936815
Cl       -2.48344331505382   -2.30576028461229    2.76836171149699
C         0.86610524466712   -2.32170865477767    5.11883195955008
H         2.30918173434940   -1.59893287183017    3.70635768288796
Br        1.92513702517404   -2.73498774676079    6.62300508265351
93
 energy: -141.996839641614 gnorm: 0.034278736734 xtb: 6.4.1 (1a32961)
N        -0.93541966995324   -2.06952979734556   -0.30608933326678
C        -2.19771496867986   -1.63193577314539   -0.43875867583902
C        -3.10879971031922   -2.30201692111498   -1.26268558624477
C        -2.70905686733236   -3.42810917734141   -1.95102112670935
C        -1.39492453860642   -3.86302268682430   -1.81045720374502
C        -0.55487108124381   -3.14798033377640   -0.98060983268855
H         0.47209906410347   -3.45102946811490   -0.83359563158439
H        -1.03829759577388   -4.73793922792405   -2.32780735695437
H        -4.12235165819141   -1.95186567446234   -1.36243255938403
C        -2.55953442101488   -0.45264505249290    0.34368678667435
N        -1.57595860389257    0.12726606095490    1.05840646989559
C        -1.87091637026728    1.17467744814976    1.81850052577275
C        -3.14584024202422    1.69432928229019    1.94068115140502
C        -4.17258682165929    1.10657697347788    1.21067049769301
C        -3.86974781616951    0.03401061895405    0.39773891417332
H        -4.65377065885658   -0.43902028928422   -0.16843203630802
H        -3.33305782151053    2.52544539563954    2.59953923818796
H        -1.03875987856856    1.60657935449225    2.35279208709292
Ir        0.42150000000000   -0.81650000000001    0.91330000000000
H         0.87260000000000   -2.23030000000000    1.54050000000001
B         0.50678789676895    0.43254424654578   -0.74924756479513
O         0.13040449985759   -0.02200431804673   -2.00091022814944
C         0.00134127812839    1.09291419904180   -2.89170602360273
C         0.50060473705892    0.72744119545995   -4.28716749446096
H         1.51041845146023    0.33338298301819   -4.25258026523009
H         0.47431608946326    1.60822801377233   -4.92345613286959
H        -0.14805278448295   -0.03407173676249   -4.71237708767829
C        -1.49789776849080    1.42305712529717   -2.96683576969957
H        -1.68764058409328    2.23314871251767   -3.66410895179941
H        -2.03142944419577    0.53485409484426   -3.29860094225005
H        -1.86717765880176    1.69006053680249   -1.97861144759029
C         0.82489014622971    2.20364595588241   -2.16572587488198
O         0.78445485072866    1.77377378824013   -0.79836044913034
C         2.30099158066874    2.20472743679986   -2.58323682723340
H         2.71340493881267    1.21251174404985   -2.42121778182333
H         2.41864228439402    2.51001228113725   -3.61851294149940
H         2.84284557497115    2.89765475699250   -1.94421725534585
C         0.26256286942444    3.61699215118132   -2.29841104716280
H        -0.73206193335663    3.69402650045422   -1.87205967887076
H         0.91375823082926    4.30652841188429   -1.76769063857689
H         0.23175246309687    3.89894862129737   -3.34750209989314
B         1.57990131121015    0.61406626119923    1.88729436694208
O         2.93208847216851    0.57219815470220    2.12693569458412
C         3.36622205693359    1.87989425431765    2.53165464057705
C         4.53146718259552    1.77897421725010    3.51043300587411
H         4.28792937675286    1.13573840475844    4.34928767752549
H         5.39153303682951    1.35779351933679    2.99670559549620
H         4.78914676500797    2.76912096807280    3.87549969573733
C         3.81282785837761    2.59538877374174    1.25086422380336
H         4.20075985187946    3.58702391304951    1.46129202014160
H         4.58612194743747    1.99841787682468    0.77474971406369
H         2.96817595032410    2.64460400937832    0.56801802896938
C         2.05584247630186    2.49202319606540    3.11391432309492
O         1.04437861537365    1.77251118044458    2.39269847406607
C         1.88940281624165    3.99269720603991    2.89846765413940
H         1.83957376265728    4.22748562647375    1.84076481514750
H         0.96450233304962    4.32130135723612    3.36530463011329
H         2.72205310157816    4.52191597084159    3.35319424739876
C         1.86122926642546    2.15540516556046    4.59876148401352
H         1.97914010433923    1.08438014835784    4.74539693561380
H         2.56767569439945    2.69589989276118    5.22010895469150
H         0.84924189335821    2.42638153790796    4.89039094006444
B         2.27820000000004   -1.33090000000003    0.17410000000000
O         2.90572532036799   -2.53497401085445    0.42618817724368
C         4.25134812905084   -2.48068775122564   -0.07200154928438
C         5.12757953392988   -2.06714214064860    1.11666105905638
H         4.77298722369366   -1.11103686697054    1.49418679982587
H         5.00893828480003   -2.80653995544542    1.90456496038736
H         6.17450548620942   -2.00874207044098    0.83808411722173
C         4.69008022662966   -3.84723716093949   -0.58970418152853