      -----------------------------------------------------------      
     |                   =====================                   |     
     |                           x T B                           |     
     |                   =====================                   |     
     |                         S. Grimme                         |     
     |          Mulliken Center for Theoretical Chemistry        |     
     |                    University of Bonn                     |     
      -----------------------------------------------------------      

   * xtb version 6.4.0 (f63f532) compiled by 'knkr256@seskscpg008.prim.scp' on 2021-04-09

   xtb is free software: you can redistribute it and/or modify it under
   the terms of the GNU Lesser General Public License as published by
   the Free Software Foundation, either version 3 of the License, or
   (at your option) any later version.
   
   xtb is distributed in the hope that it will be useful,
   but WITHOUT ANY WARRANTY; without even the implied warranty of
   MERCHANTABILITY or FITNESS FOR A PARTICULAR PURPOSE.  See the
   GNU Lesser General Public License for more details.
   
   Cite this work as:
   * C. Bannwarth, E. Caldeweyher, S. Ehlert, A. Hansen, P. Pracht,
     J. Seibert, S. Spicher, S. Grimme, WIREs Comput. Mol. Sci., 2020, 11,
     e01493. DOI: 10.1002/wcms.1493
   
   for GFN2-xTB:
   * C. Bannwarth, S. Ehlert and S. Grimme., J. Chem. Theory Comput., 2019,
     15, 1652-1671. DOI: 10.1021/acs.jctc.8b01176
   for GFN1-xTB:
   * S. Grimme, C. Bannwarth, P. Shushkov, J. Chem. Theory Comput., 2017,
     13, 1989-2009. DOI: 10.1021/acs.jctc.7b00118
   for GFN0-xTB:
   * P. Pracht, E. Caldeweyher, S. Ehlert, S. Grimme, ChemRxiv, 2019, preprint.
     DOI: 10.26434/chemrxiv.8326202.v1
   for GFN-FF:
   * S. Spicher and S. Grimme, Angew. Chem. Int. Ed., 2020, 59, 15665-15673.
     DOI: 10.1002/anie.202004239
   
   for DFT-D4:
   * E. Caldeweyher, C. Bannwarth and S. Grimme, J. Chem. Phys., 2017,
     147, 034112. DOI: 10.1063/1.4993215
   * E. Caldeweyher, S. Ehlert, A. Hansen, H. Neugebauer, S. Spicher,
     C. Bannwarth and S. Grimme, J. Chem. Phys., 2019, 150, 154122.
     DOI: 10.1063/1.5090222
   * E. Caldeweyher, J.-M. Mewes, S. Ehlert and S. Grimme, Phys. Chem. Chem. Phys.
     2020, 22, 8499-8512. DOI: 10.1039/D0CP00502A
   
   for sTDA-xTB:
   * S. Grimme and C. Bannwarth, J. Chem. Phys., 2016, 145, 054103.
     DOI: 10.1063/1.4959605
   
   in the mass-spec context:
   * V. Asgeirsson, C. Bauer and S. Grimme, Chem. Sci., 2017, 8, 4879.
     DOI: 10.1039/c7sc00601b
   * J. Koopman and S. Grimme, ACS Omega 2019, 4, 12, 15120-15133.
     DOI: 10.1021/acsomega.9b02011
   
   for metadynamics refer to:
   * S. Grimme, J. Chem. Theory Comput., 2019, 155, 2847-2862
     DOI: 10.1021/acs.jctc.9b00143
   
   for SPH calculations refer to:
   * S. Spicher and S. Grimme, J. Chem. Theory Comput., 2021, 17, 1701-1714
     DOI: 10.1021/acs.jctc.0c01306
   
   with help from (in alphabetical order)
   P. Atkinson, C. Bannwarth, F. Bohle, G. Brandenburg, E. Caldeweyher
   M. Checinski, S. Dohm, S. Ehlert, S. Ehrlich, I. Gerasimov, J. Koopman
   C. Lavinge, S. Lehtola, F. März, M. Müller, F. Musil, H. Neugebauer
   J. Pisarek, P. Pracht, J. Seibert, P. Shushkov, S. Spicher, M. Stahn
   T. Strunk, J. Stückrath, T. Rose, and J. Unsleber
   
 * started run on 2021/10/08 at 07:18:21.715     

           -------------------------------------------------
          |                Calculation Setup                |
           -------------------------------------------------

          program call               : xtb xtbopt.xyz --sp --alpb thf -P 6
          hostname                   : seskscpg010.prim.scp
          coordinate file            : xtbopt.xyz
          omp threads                :                     6
          number of atoms            :                   106
          number of electrons        :                   280
          charge                     :                     0
          spin                       :                   0.0
          first test random number   :      0.50164621865373

   ID    Z sym.   atoms
    1    7 N      1, 11, 89, 98
    2    6 C      2-6, 10, 12-15, 23, 24, 28, 32, 34, 38, 44, 45, 49, 53, 55,
                  59, 65, 66, 70, 74, 76, 80, 86-88, 91, 93, 95, 99-101, 103
    3    1 H      7-9, 16-18, 20, 25-27, 29-31, 35-37, 39-41, 46-48, 50-52,
                  56-58, 60-62, 67-69, 71-73, 77-79, 81-85, 90, 92, 94, 96,
                  97, 102, 104-106
    4   77 Ir     19
    5    5 B      21, 42, 63
    6    8 O      22, 33, 43, 54, 64, 75

molecular fragmentation (1/2 indicates fragments):
111111111111111111111111111111111111111111111111111111111111111111111111
1111111111111222222222222222222222
# atoms in fragment 1/2:    85    21
 fragment masses (1/2) :      730.32      157.19
CMA distance (Bohr)    :  11.664
constraining FC (au)   :  0.0500

           -------------------------------------------------
          |                 G F N 2 - x T B                 |
           -------------------------------------------------

        Reference                      10.1021/acs.jctc.8b01176
      * Hamiltonian:
        H0-scaling (s, p, d)           1.850000    2.230000    2.230000
        zeta-weighting                 0.500000
      * Dispersion:
        s8                             2.700000
        a1                             0.520000
        a2                             5.000000
        s9                             5.000000
      * Repulsion:
        kExp                           1.500000    1.000000
        rExp                           1.000000
      * Coulomb:
        alpha                          2.000000
        third order                    shell-resolved
        anisotropic                    true
        a3                             3.000000
        a5                             4.000000
        cn-shift                       1.200000
        cn-exp                         4.000000
        max-rad                        5.000000

      * Solvation model:               ALPB
        Solvent                        thf
        Parameter file                 internal GFN2-xTB/ALPB
        Dielectric constant                7.6000E+00
        Reference state                gsolv [1 M gas/solution]
        Free energy shift                  5.3248E-03 Eh       3.3414E+00 kcal/mol
        Temperature                        2.9815E+02 K
        Density                            8.8300E-01 kg/L
        Solvent mass                       7.2106E+01 g/mol
        Interaction kernel             P16
        Born radius scaling (c1)           1.7311E+00
        Born radii integrator          GBOBC
        Born offset                        0.0000E+00 a0       0.0000E+00 AA
        H-bond correction              true
        Ion screening                  false
        Surface tension                    1.0000E-05 Eh       1.5569E+01 dyn/cm
        Grid points                               230 per atom
q/qsh data taken from xtbrestart
CAMM data taken from xtbrestart

          ...................................................
          :                      SETUP                      :
          :.................................................:
          :  # basis functions                 268          :
          :  # atomic orbitals                 267          :
          :  # shells                          159          :
          :  # electrons                       280          :
          :  max. iterations                   250          :
          :  Hamiltonian                  GFN2-xTB          :
          :  restarted?                       true          :
          :  GBSA solvation                   true          :
          :  PC potential                    false          :
          :  electronic temp.          300.0000000     K    :
          :  accuracy                    1.0000000          :
          :  -> integral cutoff          0.2500000E+02      :
          :  -> integral neglect         0.1000000E-07      :
          :  -> SCF convergence          0.1000000E-05 Eh   :
          :  -> wf. convergence          0.1000000E-03 e    :
          :  Broyden damping             0.4000000          :
          ...................................................

 iter      E             dE          RMSdq      gap      omega  full diag
   1   -154.9161875 -0.154916E+03  0.153E-05    0.87       0.0  T
   2   -154.9161875  0.450768E-10  0.250E-05    0.87     388.2  T
   3   -154.9161875 -0.527507E-10  0.109E-05    0.87     893.3  T

   *** convergence criteria satisfied after 3 iterations ***

         #    Occupation            Energy/Eh            Energy/eV
      -------------------------------------------------------------
         1        2.0000           -0.6723097             -18.2945
       ...           ...                  ...                  ...
       134        2.0000           -0.3546050              -9.6493
       135        2.0000           -0.3409770              -9.2785
       136        2.0000           -0.3257435              -8.8639
       137        2.0000           -0.3153610              -8.5814
       138        2.0000           -0.3145892              -8.5604
       139        2.0000           -0.3059575              -8.3255
       140        2.0000           -0.3041045              -8.2751 (HOMO)
       141        0.0000           -0.2722168              -7.4074 (LUMO)
       142                         -0.2485696              -6.7639
       143                         -0.2450264              -6.6675
       144                         -0.2419823              -6.5847
       145                         -0.2354986              -6.4082
       ...                                ...                  ...
       267                          3.6418437              99.0996
      -------------------------------------------------------------
                  HL-Gap            0.0318877 Eh            0.8677 eV
             Fermi-level           -0.2880975 Eh           -7.8395 eV

 SCC (total)                   0 d,  0 h,  0 min,  0.117 sec
 SCC setup                      ...        0 min,  0.002 sec (  2.014%)
 Dispersion                     ...        0 min,  0.002 sec (  1.750%)
 classical contributions        ...        0 min,  0.000 sec (  0.151%)
 integral evaluation            ...        0 min,  0.032 sec ( 27.631%)
 iterations                     ...        0 min,  0.036 sec ( 30.709%)
 molecular gradient             ...        0 min,  0.043 sec ( 37.090%)
 printout                       ...        0 min,  0.001 sec (  0.597%)

         :::::::::::::::::::::::::::::::::::::::::::::::::::::
         ::                     SUMMARY                     ::
         :::::::::::::::::::::::::::::::::::::::::::::::::::::
         :: total energy            -152.892964049783 Eh    ::
         :: total w/o Gsasa/hb      -152.849735029532 Eh    ::
         :: gradient norm              0.037328122200 Eh/a0 ::
         :: HOMO-LUMO gap              0.867708356609 eV    ::
         ::.................................................::
         :: SCC energy              -154.916187487496 Eh    ::
         :: -> isotropic ES            0.247508362543 Eh    ::
         :: -> anisotropic ES          0.016915340224 Eh    ::
         :: -> anisotropic XC          0.059314983539 Eh    ::
         :: -> dispersion             -0.146283335340 Eh    ::
         :: -> Gsolv                  -0.053965124324 Eh    ::
         ::    -> Gelec               -0.010736104073 Eh    ::
         ::    -> Gsasa               -0.045900713660 Eh    ::
         ::    -> Ghb                 -0.002653122035 Eh    ::
         ::    -> Gshift               0.005324815444 Eh    ::
         :: repulsion energy           2.014804780255 Eh    ::
         :: add. restraining           0.000000000000 Eh    ::
         :: total charge               0.000000000022 e     ::
         :::::::::::::::::::::::::::::::::::::::::::::::::::::

           -------------------------------------------------
          |                Property Printout                |
           -------------------------------------------------

    * Orbital Energies and Occupations

         #    Occupation            Energy/Eh            Energy/eV
      -------------------------------------------------------------
         1        2.0000           -0.6723097             -18.2945
       ...           ...                  ...                  ...
       128        2.0000           -0.3854624             -10.4890
       129        2.0000           -0.3843966             -10.4600
       130        2.0000           -0.3801971             -10.3457
       131        2.0000           -0.3790175             -10.3136
       132        2.0000           -0.3732660             -10.1571
       133        2.0000           -0.3666695              -9.9776
       134        2.0000           -0.3546050              -9.6493
       135        2.0000           -0.3409770              -9.2785
       136        2.0000           -0.3257435              -8.8639
       137        2.0000           -0.3153610              -8.5814
       138        2.0000           -0.3145892              -8.5604
       139        2.0000           -0.3059575              -8.3255
       140        2.0000           -0.3041045              -8.2751 (HOMO)
       141        0.0000           -0.2722168              -7.4074 (LUMO)
       142                         -0.2485696              -6.7639
       143                         -0.2450264              -6.6675
       144                         -0.2419823              -6.5847
       145                         -0.2354986              -6.4082
       146                         -0.2019369              -5.4950
       147                         -0.1912872              -5.2052
       148                         -0.1685428              -4.5863
       149                         -0.1441789              -3.9233
       150                         -0.1250356              -3.4024
       151                         -0.1234603              -3.3595
       ...                                ...                  ...
       267                          3.6418437              99.0996
      -------------------------------------------------------------
                  HL-Gap            0.0318877 Eh            0.8677 eV
             Fermi-level           -0.2880975 Eh           -7.8395 eV

     #   Z          covCN         q      C6AA      α(0)
     1   7 N        2.560    -0.123    23.701     7.230
     2   6 C        2.957     0.075    26.330     8.416
     3   6 C        2.918    -0.042    29.054     8.839
     4   6 C        2.923    -0.024    28.601     8.770
     5   6 C        2.915    -0.044    29.099     8.846
     6   6 C        2.892     0.049    26.908     8.505
     7   1 H        0.926     0.049     2.329     2.387
     8   1 H        0.926     0.051     2.302     2.372
     9   1 H        0.926     0.042     2.424     2.435
    10   6 C        2.955     0.070    26.430     8.432
    11   7 N        2.573    -0.124    23.720     7.233
    12   6 C        2.889     0.042    27.049     8.527
    13   6 C        2.915    -0.046    29.142     8.852
    14   6 C        2.922    -0.026    28.664     8.780
    15   6 C        2.918    -0.046    29.152     8.854
    16   1 H        0.926     0.042     2.420     2.433
    17   1 H        0.926     0.046     2.377     2.411
    18   1 H        0.926     0.074     2.044     2.236
    19  77 Ir       5.970    -0.171   390.033    36.521
    20   1 H        0.977     0.096     1.819     2.107
    21   5 B        2.626     0.402    16.062     6.775
    22   8 O        1.638    -0.414    21.125     6.204
    23   6 C        3.835     0.131    18.435     6.109
    24   6 C        3.755    -0.119    22.842     6.815
    25   1 H        0.925     0.052     2.297     2.370
    26   1 H        0.925     0.043     2.407     2.426
    27   1 H        0.925     0.049     2.333     2.389
    28   6 C        3.754    -0.107    22.601     6.779
    29   1 H        0.925     0.045     2.378     2.412
    30   1 H        0.925     0.040     2.454     2.450
    31   1 H        0.925     0.027     2.628     2.535
    32   6 C        3.839     0.131    18.430     6.107
    33   8 O        1.637    -0.407    20.989     6.184
    34   6 C        3.755    -0.118    22.811     6.810
    35   1 H        0.925     0.047     2.358     2.402
    36   1 H        0.925     0.045     2.390     2.417
    37   1 H        0.925     0.048     2.340     2.392
    38   6 C        3.754    -0.119    22.827     6.813
    39   1 H        0.925     0.046     2.366     2.405
    40   1 H        0.925     0.052     2.297     2.370
    41   1 H        0.925     0.043     2.404     2.425
    42   5 B        2.625     0.407    15.999     6.762
    43   8 O        1.637    -0.384    20.543     6.118
    44   6 C        3.837     0.129    18.471     6.114
    45   6 C        3.755    -0.125    22.962     6.833
    46   1 H        0.925     0.055     2.260     2.351
    47   1 H        0.925     0.055     2.256     2.349
    48   1 H        0.925     0.048     2.340     2.392
    49   6 C        3.755    -0.121    22.866     6.818
    50   1 H        0.925     0.047     2.355     2.400
    51   1 H        0.925     0.044     2.396     2.420
    52   1 H        0.925     0.052     2.299     2.371
    53   6 C        3.832     0.128    18.485     6.117
    54   8 O        1.638    -0.382    20.517     6.114
    55   6 C        3.755    -0.123    22.918     6.826
    56   1 H        0.925     0.053     2.289     2.366
    57   1 H        0.925     0.053     2.277     2.360
    58   1 H        0.925     0.047     2.361     2.403
    59   6 C        3.755    -0.122    22.894     6.823
    60   1 H        0.925     0.047     2.361     2.403
    61   1 H        0.925     0.050     2.314     2.379
    62   1 H        0.925     0.047     2.358     2.401
    63   5 B        2.624     0.400    16.096     6.784
    64   8 O        1.637    -0.378    20.446     6.104
    65   6 C        3.833     0.125    18.526     6.124
    66   6 C        3.755    -0.130    23.051     6.846
    67   1 H        0.925     0.059     2.214     2.327
    68   1 H        0.925     0.054     2.276     2.359
    69   1 H        0.925     0.048     2.342     2.393
    70   6 C        3.755    -0.128    23.018     6.841
    71   1 H        0.925     0.060     2.197     2.318
    72   1 H        0.925     0.049     2.332     2.388
    73   1 H        0.925     0.051     2.304     2.374
    74   6 C        3.827     0.127    18.501     6.120
    75   8 O        1.637    -0.386    20.589     6.125
    76   6 C        3.755    -0.123    22.905     6.824
    77   1 H        0.925     0.049     2.331     2.388
    78   1 H        0.925     0.051     2.307     2.375
    79   1 H        0.925     0.054     2.275     2.359
    80   6 C        3.755    -0.121    22.869     6.819
    81   1 H        0.925     0.039     2.458     2.452
    82   1 H        0.925     0.049     2.338     2.391
    83   1 H        0.925     0.053     2.285     2.364
    84   1 H        0.926     0.048     2.341     2.393
    85   1 H        0.926     0.046     2.375     2.410
    86   6 C        2.947    -0.051    29.266     8.873
    87   6 C        3.061    -0.028    28.633     8.775
    88   6 C        3.062    -0.073    29.742     8.943
    89   7 N        2.849    -0.010    21.438     6.877
    90   1 H        0.926     0.015     2.813     2.623
    91   6 C        3.041    -0.030    28.704     8.787
    92   1 H        0.926     0.023     2.691     2.565
    93   6 C        3.749    -0.024    21.071     6.547
    94   1 H        0.926     0.030     2.592     2.518
    95   6 C        2.957     0.094    25.917     8.350
    96   1 H        0.924     0.078     1.998     2.210
    97   1 H        0.924     0.086     1.922     2.168
    98   7 N        1.842    -0.250    27.367     7.753
    99   6 C        2.915    -0.045    29.107     8.847
   100   6 C        2.906     0.055    26.776     8.485
   101   6 C        2.929    -0.014    28.365     8.734
   102   1 H        0.926     0.047     2.361     2.403
   103   6 C        2.913    -0.047    29.163     8.855
   104   1 H        0.925     0.046     2.367     2.406
   105   1 H        0.926     0.044     2.390     2.418
   106   1 H        0.926     0.048     2.349     2.396

 Mol. C6AA /au·bohr⁶  :     121733.052610
 Mol. C8AA /au·bohr⁸  :    3217902.634104
 Mol. α(0) /au        :        542.304501


Wiberg/Mayer (AO) data.
largest (>0.10) Wiberg bond orders for each atom

 ---------------------------------------------------------------------------
     #   Z sym  total        # sym  WBO       # sym  WBO       # sym  WBO
 ---------------------------------------------------------------------------
     1   7 N    3.399 --     6 C    1.381     2 C    1.300    19 Ir   0.459
     2   6 C    3.978 --     3 C    1.345     1 N    1.300    10 C    1.098
     3   6 C    3.988 --     4 C    1.487     2 C    1.345     9 H    0.963
                             6 C    0.106
     4   6 C    3.983 --     3 C    1.487     5 C    1.374    84 H    0.969
     5   6 C    3.980 --     6 C    1.467     4 C    1.374     8 H    0.969
     6   6 C    3.978 --     5 C    1.467     1 N    1.381     7 H    0.957
                             3 C    0.106
     7   1 H    0.997 --     6 C    0.957
     8   1 H    0.997 --     5 C    0.969
     9   1 H    0.998 --     3 C    0.963
    10   6 C    3.979 --    15 C    1.347    11 N    1.297     2 C    1.098
    11   7 N    3.417 --    12 C    1.379    10 C    1.297    19 Ir   0.461
    12   6 C    3.974 --    13 C    1.465    11 N    1.379    18 H    0.947
                            15 C    0.105
    13   6 C    3.982 --    12 C    1.465    14 C    1.375    17 H    0.969
    14   6 C    3.982 --    15 C    1.485    13 C    1.375    85 H    0.969
    15   6 C    3.989 --    14 C    1.485    10 C    1.347    16 H    0.962
                            12 C    0.105
    16   1 H    0.998 --    15 C    0.962
    17   1 H    0.997 --    13 C    0.969
    18   1 H    0.994 --    12 C    0.947
    19  77 Ir   5.252 --    63 B    0.878    42 B    0.868    21 B    0.718
                            86 C    0.597    20 H    0.543    11 N    0.461
                             1 N    0.459
    20   1 H    0.987 --    19 Ir   0.543    86 C    0.340
    21   5 B    3.258 --    33 O    1.105    22 O    1.084    19 Ir   0.718
    22   8 O    2.183 --    21 B    1.084    23 C    0.946
    23   6 C    3.945 --    24 C    0.996    28 C    0.989    22 O    0.946
                            32 C    0.941
    24   6 C    3.994 --    23 C    0.996    26 H    0.984    27 H    0.984
                            25 H    0.983
    25   1 H    0.997 --    24 C    0.983
    26   1 H    0.997 --    24 C    0.984
    27   1 H    0.997 --    24 C    0.984
    28   6 C    3.997 --    23 C    0.989    31 H    0.985    29 H    0.984
                            30 H    0.984
    29   1 H    0.997 --    28 C    0.984
    30   1 H    0.998 --    28 C    0.984
    31   1 H    0.999 --    28 C    0.985
    32   6 C    3.942 --    38 C    0.996    34 C    0.991    33 O    0.942
                            23 C    0.941
    33   8 O    2.196 --    21 B    1.105    32 C    0.942
    34   6 C    3.995 --    32 C    0.991    36 H    0.984    35 H    0.983
                            37 H    0.983
    35   1 H    0.998 --    34 C    0.983
    36   1 H    0.997 --    34 C    0.984
    37   1 H    0.997 --    34 C    0.983
    38   6 C    3.995 --    32 C    0.996    41 H    0.984    39 H    0.983
                            40 H    0.983
    39   1 H    0.998 --    38 C    0.983
    40   1 H    0.997 --    38 C    0.983
    41   1 H    0.997 --    38 C    0.984
    42   5 B    3.331 --    43 O    1.114    54 O    1.101    19 Ir   0.868
    43   8 O    2.224 --    42 B    1.114    44 C    0.938
    44   6 C    3.937 --    45 C    0.997    49 C    0.991    53 C    0.939
                            43 O    0.938
    45   6 C    3.993 --    44 C    0.997    48 H    0.983    46 H    0.982
                            47 H    0.982
    46   1 H    0.997 --    45 C    0.982
    47   1 H    0.997 --    45 C    0.982
    48   1 H    0.997 --    45 C    0.983
    49   6 C    3.994 --    44 C    0.991    50 H    0.984    51 H    0.983
                            52 H    0.980
    50   1 H    0.997 --    49 C    0.984
    51   1 H    0.998 --    49 C    0.983
    52   1 H    0.997 --    49 C    0.980
    53   6 C    3.939 --    55 C    0.996    59 C    0.991    44 C    0.939
                            54 O    0.938
    54   8 O    2.223 --    42 B    1.101    53 C    0.938
    55   6 C    3.993 --    53 C    0.996    58 H    0.983    57 H    0.983
                            56 H    0.983
    56   1 H    0.997 --    55 C    0.983
    57   1 H    0.997 --    55 C    0.983
    58   1 H    0.997 --    55 C    0.983
    59   6 C    3.994 --    53 C    0.991    61 H    0.983    62 H    0.983
                            60 H    0.981
    60   1 H    0.998 --    59 C    0.981
    61   1 H    0.996 --    59 C    0.983
    62   1 H    0.997 --    59 C    0.983
    63   5 B    3.350 --    75 O    1.110    64 O    1.110    19 Ir   0.878
    64   8 O    2.226 --    63 B    1.110    65 C    0.941
    65   6 C    3.938 --    70 C    0.996    66 C    0.991    64 O    0.941
                            74 C    0.937
    66   6 C    3.992 --    65 C    0.991    69 H    0.983    68 H    0.983
                            67 H    0.978
    67   1 H    0.997 --    66 C    0.978
    68   1 H    0.997 --    66 C    0.983
    69   1 H    0.997 --    66 C    0.983
    70   6 C    3.992 --    65 C    0.996    72 H    0.984    73 H    0.982
                            71 H    0.982
    71   1 H    0.996 --    70 C    0.982
    72   1 H    0.997 --    70 C    0.984
    73   1 H    0.997 --    70 C    0.982
    74   6 C    3.937 --    76 C    0.995    80 C    0.991    75 O    0.939
                            65 C    0.937
    75   8 O    2.226 --    63 B    1.110    74 C    0.939
    76   6 C    3.993 --    74 C    0.995    77 H    0.983    78 H    0.983
                            79 H    0.982
    77   1 H    0.996 --    76 C    0.983
    78   1 H    0.997 --    76 C    0.983
    79   1 H    0.997 --    76 C    0.982
    80   6 C    3.995 --    74 C    0.991    81 H    0.984    83 H    0.984
                            82 H    0.983
    81   1 H    0.998 --    80 C    0.984
    82   1 H    0.997 --    80 C    0.983
    83   1 H    0.996 --    80 C    0.984
    84   1 H    0.997 --     4 C    0.969
    85   1 H    0.997 --    14 C    0.969
    86   6 C    3.950 --    87 C    1.499    88 C    1.282    19 Ir   0.597
                            20 H    0.340
    87   6 C    3.935 --    86 C    1.499    89 N    1.201    90 H    0.967
                            91 C    0.131
    88   6 C    3.978 --    91 C    1.556    86 C    1.282    92 H    0.969
    89   7 N    3.617 --    91 C    1.211    87 C    1.201    93 C    0.999
    90   1 H    1.000 --    87 C    0.967
    91   6 C    3.939 --    88 C    1.556    89 N    1.211    94 H    0.969
                            87 C    0.131
    92   1 H    0.999 --    88 C    0.969
    93   6 C    3.972 --    89 N    0.999    95 C    0.990    97 H    0.956
                            96 H    0.949
    94   1 H    0.998 --    91 C    0.969
    95   6 C    3.979 --    98 N    1.412    99 C    1.397    93 C    0.990
                           103 C    0.111
    96   1 H    0.993 --    93 C    0.949
    97   1 H    0.991 --    93 C    0.956
    98   7 N    3.053 --   100 C    1.437    95 C    1.412   101 C    0.101
    99   6 C    3.991 --   101 C    1.450    95 C    1.397   102 H    0.966
                           100 C    0.115
   100   6 C    3.980 --    98 N    1.437   103 C    1.429   104 H    0.963
                            99 C    0.115
   101   6 C    3.990 --    99 C    1.450   103 C    1.435   105 H    0.969
                            98 N    0.101
   102   1 H    0.998 --    99 C    0.966
   103   6 C    3.991 --   101 C    1.435   100 C    1.429   106 H    0.969
                            95 C    0.111
   104   1 H    0.997 --   100 C    0.963
   105   1 H    0.998 --   101 C    0.969
   106   1 H    0.997 --   103 C    0.969
 ---------------------------------------------------------------------------

Topologies differ in total number of bonds
Writing topology from bond orders to xtbtopo.mol

molecular dipole:
                 x           y           z       tot (Debye)
 q only:       -0.384       0.322       0.103
   full:       -1.589       0.953      -0.653       4.994
molecular quadrupole (traceless):
                xx          xy          yy          xz          yz          zz
 q only:        5.881       0.850      -5.214      -5.791      11.954      -0.667
  q+dip:        9.307      -0.528      -7.258      -6.823      23.732      -2.049
   full:        9.042       0.987      -6.088      -7.152      21.411      -2.954


           -------------------------------------------------
          | TOTAL ENERGY             -152.892964049783 Eh   |
          | GRADIENT NORM               0.037328122200 Eh/α |
          | HOMO-LUMO GAP               0.867708356609 eV   |
           -------------------------------------------------

------------------------------------------------------------------------
 * finished run on 2021/10/08 at 07:18:21.879     
------------------------------------------------------------------------
 total:
 * wall-time:     0 d,  0 h,  0 min,  0.164 sec
 *  cpu-time:     0 d,  0 h,  0 min,  0.959 sec
 * ratio c/w:     5.855 speedup
 SCF:
 * wall-time:     0 d,  0 h,  0 min,  0.118 sec
 *  cpu-time:     0 d,  0 h,  0 min,  0.706 sec
 * ratio c/w:     5.975 speedup

