106
 energy: -152.879590005878 gnorm: 0.076180279122 xtb: 6.4.0 (f63f532)
N        -0.96510000000000   -2.11529999999999   -0.24090000000001
C        -2.24699999999995   -1.69840000000001   -0.36219999999998
C        -3.14040000000000   -2.36820000000000   -1.21200000000001
C        -2.70220000000004   -3.47560000000001   -1.93050000000003
C        -1.37780000000006   -3.89880000000002   -1.78760000000002
C        -0.54290000000001   -3.18670000000002   -0.93510000000001
H         0.49809999999997   -3.45630000000000   -0.78940000000000
H        -0.99570000000001   -4.76030000000000   -2.32770000000000
H        -4.16500000000000   -2.02890000000001   -1.31830000000000
C        -2.62129999999999   -0.50949999999999    0.44099999999998
N        -1.62599999999999    0.07330000000001    1.16019999999999
C        -1.89680000000001    1.15240000000000    1.91690000000000
C        -3.17230000000000    1.70329999999996    1.99650000000001
C        -4.20510000000001    1.11740000000003    1.26270000000005
C        -3.92610000000000    0.00250000000001    0.47820000000001
H        -4.71959999999999   -0.46420000000000   -0.09520000000001
H        -3.34630000000000    2.57510000000001    2.62069999999999
H        -1.04449999999999    1.57420000000000    2.43690000000001
Ir        0.42150000000000   -0.81650000000000    0.91330000000000
H         0.87260000000000   -2.23030000000000    1.54050000000000
B         0.50670000000000    0.41560000000001   -0.81539999999999
O         0.19499999999999   -0.04699999999999   -2.09150000000000
C         0.00650000000003    1.10040000000000   -2.95430000000000
C         0.49019999999990    0.74740000000000   -4.35780000000000
H         1.51610000000000    0.37380000000000   -4.33700000000000
H         0.44730000000001    1.62240000000000   -5.01670000000000
H        -0.14740000000001   -0.03389999999999   -4.78429999999999
C        -1.50120000000001    1.39560000000001   -2.96669999999999
H        -1.75370000000000    2.21460000000000   -3.64850000000000
H        -2.03200000000001    0.49450000000000   -3.28930000000000
H        -1.85170000000001    1.65210000000000   -1.96220000000004
C         0.84229999999997    2.20670000000000   -2.22039999999999
O         0.75200000000000    1.78260000000000   -0.83690000000000
C         2.32929999999997    2.18619999999999   -2.59900000000001
H         2.74130000000000    1.18500000000000   -2.45750000000000
H         2.48869999999999    2.51300000000001   -3.63180000000000
H         2.87200000000000    2.86270000000000   -1.93200000000000
C         0.28439999999998    3.62290000000000   -2.33659999999999
H        -0.72649999999997    3.69040000000000   -1.92910000000000
H         0.92130000000000    4.31480000000000   -1.77610000000000
H         0.26430000000000    3.94810000000000   -3.38320000000000
B         1.56300000000000    0.60960000000000    1.84840000000000
O         2.92780000000000    0.55230000000000    2.15020000000001
C         3.36329999999998    1.88660000000001    2.50259999999995
C         4.53140000000004    1.78590000000000    3.47739999999997
H         4.27910000000000    1.16090000000000    4.33689999999999
H         5.39390000000004    1.33790000000000    2.97340000000001
H         4.82390000000001    2.77870000000000    3.83820000000001
C         3.79700000000000    2.56850000000000    1.19670000000000
H         4.20020000000000    3.57090000000000    1.37680000000000
H         4.56740000000000    1.95560000000000    0.72109999999999
H         2.95240000000001    2.63260000000000    0.50540000000000
C         2.05040000000000    2.50090000000000    3.09320000000001
O         1.03749999999999    1.81620000000001    2.31910000000000
C         1.89099999999998    4.00450000000000    2.88649999999998
H         1.87290000000000    4.25440000000000    1.82410000000002
H         0.94940000000000    4.34260000000000    3.33170000000001
H         2.71080000000002    4.55150000000000    3.36630000000000
C         1.82470000000003    2.13200000000000    4.56520000000000
H         1.92610000000001    1.05330000000000    4.71320000000000
H         2.52610000000001    2.65279999999999    5.22539999999999
H         0.80630000000003    2.41580000000001    4.84900000000000
B         2.27819999999999   -1.33089999999999    0.17409999999998
O         2.89460000000000   -2.57740000000000    0.38450000000001
C         4.26930000000001   -2.48200000000000   -0.07209999999993
C         5.10899999999999   -2.05380000000000    1.14009999999996
H         4.76350000000000   -1.08740000000001    1.51749999999999
H         4.98050000000000   -2.79470000000000    1.93590000000000
H         6.17420000000001   -1.99290000000000    0.89300000000000
C         4.71950000000004   -3.84659999999998   -0.58469999999998
H         4.75280000000000   -4.56129999999997    0.24419999999998
H         5.72329999999999   -3.78370000000000   -1.02010000000000
H         4.03500000000001   -4.23600000000000   -1.34169999999997
C         4.16440000000003   -1.36219999999999   -1.16299999999996
O         3.08520000000002   -0.55030000000001   -0.65400000000001
C         5.40720000000004   -0.48870000000001   -1.31549999999995
H         6.27320000000001   -1.09009999999999   -1.61530000000000
H         5.23300000000000    0.26930000000003   -2.08590000000003
H         5.64270000000001    0.02650000000000   -0.38240000000001
C         3.71800000000003   -1.89830000000001   -2.53109999999999
H         2.82529999999995   -2.52160000000002   -2.42740000000000
H         3.46089999999998   -1.05249999999999   -3.17550000000000
H         4.50570000000001   -2.48290000000000   -3.01790000000001
H        -3.38499999999999   -4.00129999999998   -2.59310000000005
H        -5.21399999999998    1.52080000000001    1.29959999999999
C         0.23590000000000   -1.68140000000000    2.96030000000000
C        -0.87313565856322   -2.31278962558325    3.47736071996208
C         1.13649044343114   -1.54417493992046    4.04698063495284
N        -0.69843717397643   -2.52118786316507    4.81711864801357
H        -1.77679229528510   -2.63985014011763    2.99094159853525
C         0.53075993591275   -2.04375376527263    5.16850180730474
H         2.12889657277077   -1.13438667051578    3.98217971537896
C        -1.59438218168333   -3.22455749089580    5.70696535621744
H         0.87615093805695   -2.10882438698022    6.18621894093231
C        -2.31959002164979   -2.30434716076612    6.65550357332460
H        -2.32499314875255   -3.76781764000410    5.09876225743436
H        -1.02845437392321   -3.94814148930811    6.30306181989396
N        -2.30931084482477   -2.66279219653398    7.94204252612788
C        -2.96526625524307   -1.15758066940035    6.20369480628035
C        -2.95113093818353   -1.89222682628191    8.81623861969368
C        -3.63537487202631   -0.36563288592201    7.12380020269050
H        -2.93259850052771   -0.89980266598903    5.15393916729167
C        -3.63229595524821   -0.74071482085581    8.45999552741551
H        -2.90550122729814   -2.22997077173167    9.84484893875803
H        -4.15508562349265    0.52784974169433    6.80323351135431
H        -4.14456542222687   -0.15213929261107    9.20722287175876
106
 energy: -152.885998010278 gnorm: 0.048284820327 xtb: 6.4.0 (f63f532)
N        -0.96161526010654   -2.10039333111884   -0.24808036394619
C        -2.24103899513496   -1.69105224756697   -0.36276182401215
C        -3.13480193937465   -2.36218126156529   -1.20667448867829
C        -2.70413561895475   -3.46320209338441   -1.92208428331701
C        -1.38336800984542   -3.88164336324408   -1.78183960030404
C        -0.55393926136099   -3.16757785996206   -0.93942690169641
H         0.47978344691018   -3.44784354573465   -0.78994329288977
H        -1.00672478647385   -4.74161182057966   -2.31724955783412
H        -4.15542941652395   -2.02683556070602   -1.31137626078164
C        -2.61290336462997   -0.51699457514458    0.43813328076298
N        -1.62008670520179    0.05842003724688    1.15449833072509
C        -1.89758998528726    1.13364219221003    1.89716306816785
C        -3.16286729601706    1.68700510107427    1.98069646100343
C        -4.19564773318949    1.10351526489680    1.25396135200610
C        -3.91511837391507   -0.00377808198078    0.47514832553858
H        -4.70652087069027   -0.46554056738322   -0.09529606971294
H        -3.33699874894435    2.55224780588117    2.60523035743101
H        -1.05413620052493    1.55160621439861    2.42590297935178
Ir        0.42150000000000   -0.81650000000000    0.91330000000000
H         0.87260000000000   -2.23030000000000    1.54050000000000
B         0.49528060075705    0.42390915256703   -0.78922810163372
O         0.17702145062578   -0.03498236072752   -2.06187088056344
C         0.01156764010982    1.09604234129165   -2.94290356157216
C         0.49026523062500    0.74650670917178   -4.34808727892172
H         1.50925832351311    0.36970960570162   -4.32689922739041
H         0.44544221574879    1.62190920903682   -4.99681032434676
H        -0.14850728392197   -0.02959077458116   -4.76844105585575
C        -1.49263384076803    1.39864219357101   -2.97001868231327
H        -1.73104168024824    2.21150763751153   -3.65450688058784
H        -2.02277412650867    0.50143165159603   -3.28973879575178
H        -1.83961486344883    1.65357775064460   -1.96850385851830
C         0.83271787757897    2.20665499657397   -2.21258847917024
O         0.75664424062453    1.78103149075775   -0.83549000159076
C         2.31513800054305    2.19060683230583   -2.60055182619315
H         2.71942848283183    1.19153045900666   -2.45008294012385
H         2.46687108206840    2.51153726437675   -3.63055581739193
H         2.85750176548331    2.86542144577066   -1.93920523319708
C         0.28106434754379    3.62268274304338   -2.34058340113817
H        -0.72227011170916    3.69168262267263   -1.92826960704714
H         0.92060620323190    4.30659973951766   -1.78399766773320
H         0.26341116101413    3.93482174680067   -3.38500581307714
B         1.56486067089521    0.61454482164761    1.86018986452458
O         2.92699216306399    0.56658202130427    2.13681981171485
C         3.36348172765590    1.88785976678231    2.50958712532687
C         4.53336996075797    1.79059676935698    3.48045466531042
H         4.28126096038526    1.16225021035044    4.33068936773650
H         5.38828866260068    1.34585853914568    2.97281786512562
H         4.81603357014886    2.78092766454128    3.83664441860469
C         3.79959606303436    2.57501350368445    1.21108508123514
H         4.20087237633549    3.57097963557609    1.39443395081589
H         4.56350264502598    1.96315396627284    0.73419626918899
H         2.95133704770018    2.62667636655506    0.52977317461435
C         2.05331164137151    2.50641267178476    3.08914985822784
O         1.04164886851273    1.80983427302654    2.33593274693078
C         1.89438906038954    4.00846121693167    2.88767593558708
H         1.86902701961155    4.25159079689537    1.82926428334200
H         0.95674706853355    4.33751043240766    3.33407899595415
H         2.71481003289456    4.54496338351311    3.36388073066785
C         1.83166705815533    2.14609825827645    4.56227717797693
H         1.93082589909627    1.07106871395796    4.70248987965096
H         2.53324669050914    2.66763346148784    5.21101762275925
H         0.81705285792466    2.42510748978315    4.84542529872053
B         2.27819999999999   -1.33089999999999    0.17409999999998
O         2.90088662984172   -2.56275162693886    0.38829595065604
C         4.26558037871414   -2.48378193457380   -0.07780332904205
C         5.10986651603044   -2.05913916933051    1.12815687546040
H         4.75246727653233   -1.09974217705330    1.49964987813500
H         4.97773900450895   -2.79422617327280    1.92105936241375
H         6.16782576405201   -1.99856286411845    0.87654290135951
C         4.72065572362387   -3.84595768455753   -0.58742652854400
H         4.74978425049136   -4.54986179955269    0.24302077264768
H         5.71861781746859   -3.77450117367677   -1.01933144117049
H         4.03503760474212   -4.23360830124543   -1.33617683197337
C         4.16679476441443   -1.36064352011669   -1.15768293152129
O         3.07497245371833   -0.56370283099940   -0.66257919543024
C         5.41024466874482   -0.49261582030516   -1.31542770530492
H         6.26654639945733   -1.09852479740048   -1.61078256832227
H         5.23205357272566    0.25856921492027   -2.08382696612105
H         5.63744030679950    0.02191710130060   -0.38621691277584
C         3.73012368933925   -1.90015285050252   -2.52587834363382
H         2.83788336348335   -2.51534224802540   -2.41693089826878
H         3.47271628999778   -1.05876874624619   -3.16801353525720
H         4.52007766195078   -2.47761427194076   -3.00344398008250
H        -3.38309105051956   -3.98826200536356   -2.58043881193962
H        -5.19930242241583    1.50623972271121    1.29337227779833
C         0.23590000000001   -1.68139999999999    2.96030000000001
C        -0.87383592334862   -2.31133116543850    3.47826948886839
C         1.13590160491235   -1.54624425727559    4.04897052594506
N        -0.69967046073822   -2.51968389796086    4.81698911725617
H        -1.77626788205153   -2.63649098169055    2.99289347164470
C         0.52864953910356   -2.04522077096739    5.16765397898661
H         2.12600678799516   -1.13886365752223    3.98525179328471
C        -1.59447549883838   -3.21968723196587    5.70505534797744
H         0.87282068879528   -2.11133968272483    6.18285334599539
C        -2.32023751675169   -2.30054154092103    6.65629313336469
H        -2.32583059152078   -3.76192674190855    5.09750777147934
H        -1.03070089761039   -3.94467758498792    6.30005081332158
N        -2.31154200742929   -2.65841588168866    7.93698206025822
C        -2.96481355794680   -1.15407101382848    6.20453396531727
C        -2.94989913730141   -1.89310571930164    8.81050078687552
C        -3.63378725164814   -0.36295422815312    7.12314754077602
H        -2.93148749273391   -0.89653798263547    5.15648559137617
C        -3.63084922243962   -0.73978111721916    8.45821335298705
H        -2.90465042850795   -2.23281069674126    9.83741204559191
H        -4.15170033926988    0.52999590991824    6.80396289978030
H        -4.14158870182173   -0.15294360673549    9.20600426652008
106
 energy: -152.887639773518 gnorm: 0.039385892364 xtb: 6.4.0 (f63f532)
N        -0.95303115671456   -2.09221072623914   -0.25505834204792
C        -2.23188375287893   -1.68575237534817   -0.36456927970496
C        -3.13016764838640   -2.35635955343403   -1.20382950593644
C        -2.70709716101295   -3.45367306659888   -1.92053326374054
C        -1.38601541249867   -3.87179090286465   -1.78321042687305
C        -0.55744894874736   -3.15781246333690   -0.94561426149868
H         0.47505352964749   -3.44193292769002   -0.80390820509428
H        -1.01457144265075   -4.73103672636772   -2.31709932182292
H        -4.14956136561312   -2.02192716773419   -1.30111746052219
C        -2.60043072005043   -0.52214484381271    0.43260378940038
N        -1.60992399406208    0.04625536077520    1.15288490973925
C        -1.89382238148625    1.11655556038779    1.89052027504593
C        -3.15318298042863    1.67417006897539    1.97238058457829
C        -4.18701595517457    1.09272141694947    1.24469811946178
C        -3.90295580607782   -0.00909621837000    0.46764216183645
H        -4.69147996670721   -0.47100109102541   -0.10246132010580
H        -3.32680053607217    2.53819571186994    2.59330199013222
H        -1.05585296133356    1.53739080865595    2.42270518723999
Ir        0.42150000000000   -0.81650000000000    0.91330000000000
H         0.87260000000000   -2.23030000000000    1.54050000000000
B         0.49678984620156    0.43574353610062   -0.76526130985358
O         0.15833342033059   -0.02462976611595   -2.03147072335107
C         0.00792262228821    1.09299179084512   -2.92288175395697
C         0.49187723266405    0.73754310988568   -4.32526830038995
H         1.50715485347312    0.35689554364485   -4.30491034186980
H         0.44737685654043    1.61587276335081   -4.96454927131654
H        -0.15099084028834   -0.03248975867250   -4.74407161031428
C        -1.49468016090417    1.40477751035583   -2.97007921970288
H        -1.71432122666633    2.21367416837004   -3.66067927996549
H        -2.02411207565438    0.50980930700589   -3.29063672901998
H        -1.84481248486026    1.66359924412417   -1.97289884015169
C         0.82598091837026    2.20642345965308   -2.20013634085880
O         0.76119171958880    1.78708047771456   -0.82766613032036
C         2.30586475108037    2.19515190106943   -2.59873506023281
H         2.70744811573229    1.19776210882618   -2.44075576159221
H         2.44434834567105    2.50799294775344   -3.62996001949451
H         2.84832628270200    2.87497161979324   -1.94615068438300
C         0.27171637425462    3.62092784627671   -2.33869016699675
H        -0.72761783670253    3.69605811114605   -1.92312834840251
H         0.91629520277990    4.30408519103279   -1.79203129610354
H         0.25470481706218    3.91554359496805   -3.38481115726992
B         1.56850316760100    0.62334066966031    1.86446331548876
O         2.92626836292441    0.57983004919361    2.12601034991725
C         3.36271203552182    1.89121978189360    2.51242930689126
C         4.53057263560107    1.79332726307449    3.48677856499384
H         4.28135462846223    1.16063862364311    4.33178668165987
H         5.38321639029009    1.35531683955364    2.97514891608882
H         4.80363472040782    2.78323895597645    3.84109839984073
C         3.80428850691405    2.58849677005607    1.22131588873257
H         4.20208248160703    3.58069139660394    1.41218750751429
H         4.56750987903235    1.97896037106340    0.74495915986285
H         2.95482278737037    2.63426171244243    0.54409252546583
C         2.05413330522622    2.50918928918265    3.08979858210332
O         1.04413429630788    1.80500403693715    2.35122754965469
C         1.89703348255817    4.01102275156191    2.88408024159407
H         1.86404094949761    4.25179844673946    1.82751060648389
H         0.96436588337919    4.33682982115770    3.33645939720367
H         2.72108952833207    4.53912644537094    3.35540501714840
C         1.84216013749535    2.16189428592444    4.56839771739075
H         1.94121187315759    1.08888806063844    4.70730756081781
H         2.54707723105948    2.68824612241883    5.20415732226301
H         0.83004795722288    2.44113519389985    4.85152844969589
B         2.27819999999998   -1.33089999999999    0.17409999999998
O         2.90303466044800   -2.55154232915434    0.39573249865508
C         4.25838453217515   -2.48252663045670   -0.07830485472404
C         5.11272814920576   -2.06159592138014    1.12148718202437
H         4.74984890295262   -1.10543419911345    1.49038283015883
H         4.98145122771792   -2.79546410879211    1.91206410440514
H         6.16503296092407   -2.00150203311025    0.86108650816650
C         4.71304889829961   -3.84451229900235   -0.59038253854063
H         4.74433654289855   -4.54155901126436    0.24195582497920
H         5.70715893443793   -3.76404538054020   -1.02089980084953
H         4.02764049607164   -4.23418596084306   -1.33478866493180
C         4.16296272130696   -1.36122749610038   -1.15615588410248
O         3.06457821001410   -0.57319734125032   -0.67108146880872
C         5.40825815910500   -0.49519570914415   -1.30939518498012
H         6.25689041136534   -1.10862961860177   -1.59870503701529
H         5.23202396155602    0.24925703745642   -2.08092858986954
H         5.63171653866806    0.02170114866820   -0.38325188428833
C         3.74133222571054   -1.90468076087175   -2.52826870248845
H         2.84998126692800   -2.51701962446881   -2.41844400261001
H         3.48788917360404   -1.06532243678686   -3.17127197585834
H         4.53755577994429   -2.47820587795051   -2.99255502547600
H        -3.38698999381327   -3.97900325948477   -2.57330685755084
H        -5.18851426023779    1.49364571180778    1.28542361457824
C         0.23590000000003   -1.68139999999998    2.96030000000002
C        -0.87554535806352   -2.30859879025506    3.47771862751830
C         1.13578130586425   -1.54854165922109    4.05041702509073
N        -0.70214168408820   -2.51815417511712    4.81555912647074
H        -1.77794113614040   -2.63093098039609    2.99235580901395
C         0.52590385750499   -2.04695657633061    5.16690128520176
H         2.12532441289503   -1.14336975864955    3.98782351157208
C        -1.59694915934653   -3.21556725689929    5.70081930858176
H         0.86916969145860   -2.11506161239254    6.18113541927163
C        -2.32123332375700   -2.29632215978335    6.65485376724333
H        -2.33082291558792   -3.75518437269902    5.09411470613335
H        -1.03611479645728   -3.94264341444871    6.29563069761672
N        -2.31444424779050   -2.65500919755725    7.93169661610847
C        -2.96326681754644   -1.14786234778076    6.20376378938659
C        -2.94978398159210   -1.89329652960192    8.80633005805849
C        -3.63063486530994   -0.35739094262296    7.12311655322628
H        -2.92915123404091   -0.88926181787573    5.15679183447660
C        -3.62892921297778   -0.73688921041167    8.45762580822249
H        -2.90612595125354   -2.23513871659737    9.83220434052008
H        -4.14641613211238    0.53658821153411    6.80586922576778
H        -4.13809327921589   -0.15130774806553    9.20640352128873
106
 energy: -152.888193672502 gnorm: 0.039039266286 xtb: 6.4.0 (f63f532)
N        -0.94323241915738   -2.09007774224171   -0.26397157714085
C        -2.22342784464917   -1.68430019657366   -0.36817689486435
C        -3.12614808955004   -2.35497923202233   -1.20403368354756
C        -2.70817144345063   -3.45177061586601   -1.92278008994626
C        -1.38493629906036   -3.86935149544224   -1.79133666390607
C        -0.55294027811224   -3.15453368026737   -0.95794297226906
H         0.47977357986793   -3.44193408433468   -0.82176877196725
H        -1.01707287910010   -4.72899822522751   -2.32600487552133
H        -4.14568935506396   -2.01929251881884   -1.29473553244904
C        -2.59044891181405   -0.52512000474124    0.42947212967993
N        -1.60076391506204    0.04126890235718    1.15351545074642
C        -1.88780048712696    1.11084012257314    1.89010850774374
C        -3.14616177503931    1.66982887595847    1.96954177476870
C        -4.18034769798942    1.08868757051562    1.23921329848965
C        -3.89371222501039   -0.01147748844381    0.46248265695553
H        -4.67946770077843   -0.47324882823021   -0.11137285834980
H        -3.32063127779062    2.53289698110249    2.59040016743747
H        -1.05359934945759    1.53049901728432    2.42979537692763
Ir        0.42150000000000   -0.81650000000000    0.91330000000000
H         0.87260000000000   -2.23030000000000    1.54050000000000
B         0.48653050159916    0.44966129527483   -0.74641833436109
O         0.13864101637787   -0.01636820124364   -2.00816082891335
C         0.00048764827369    1.09264754154870   -2.90619909671007
C         0.49142351347568    0.72667125730587   -4.30430409011902
H         1.50418282384713    0.34015875529988   -4.27749256895429
H         0.45420987944694    1.60450114936196   -4.94410768870124
H        -0.15449412575712   -0.04072041805532   -4.72281641858342
C        -1.50095182003544    1.41260189191244   -2.96955431213892
H        -1.70628717137075    2.21915177826952   -3.66669829535118
H        -2.03119298433371    0.51886887374903   -3.29151217942377
H        -1.85936000386625    1.67811029797481   -1.97721977648043
C         0.81923470526720    2.20902387700159   -2.18829491700815
O         0.76271909261854    1.79679558943181   -0.81677456479017
C         2.29770053293963    2.19931548173531   -2.59570728216615
H         2.70166235212887    1.20400118275051   -2.43120579451650
H         2.42722957395452    2.50383821429869   -3.63017800118712
H         2.84125905800483    2.88656570416181   -1.95208021700372
C         0.26329433391584    3.62305082170920   -2.33519371344275
H        -0.73396162160882    3.70196040278976   -1.91577307901733
H         0.91122020745353    4.31092706098464   -1.79862450042652
H         0.24173888454401    3.90499391014020   -3.38447877572735
B         1.56871479376396    0.62510709006375    1.87415807277362
O         2.92756397162567    0.58773866772167    2.11765820620603
C         3.36254084838001    1.89452373444368    2.51386096324986
C         4.52942701113609    1.79461116832790    3.49083407525692
H         4.28125402076829    1.15686890169063    4.33214994906019
H         5.38447619762182    1.36306043611935    2.97796791039399
H         4.79600062018673    2.78441206874288    3.84956807326625
C         3.80876914932480    2.60181700238852    1.22866571647779
H         4.20283393247840    3.59326164953568    1.42830276785154
H         4.57567473617947    1.99693668313886    0.75244808513802
H         2.96129295098721    2.64865768437292    0.54942164988075
C         2.05442211524062    2.51221682521229    3.09291574645805
O         1.04325086868158    1.80079255496561    2.36675236694648
C         1.89614178427480    4.01407072384283    2.88059567525656
H         1.85544357257226    4.25106819505129    1.82350053706549
H         0.96764159047116    4.34233316602470    3.33941913714522
H         2.72523142441641    4.54090816624132    3.34385794751287
C         1.85202228595561    2.17709244997194    4.57683520186375
H         1.95240025986023    1.10525821515976    4.72243018928502
H         2.56169003744286    2.70961993377715    5.20149927020128
H         0.84185231660393    2.45905850651573    4.86347157872319
B         2.27819999999997   -1.33089999999999    0.17409999999998
O         2.90422747806711   -2.54615324123382    0.40388818314086
C         4.25383425413042   -2.48237881642404   -0.07759061474217
C         5.11683870173382   -2.06298473594082    1.11766692519074
H         4.75483192574252   -1.10729562979990    1.48824960307049
H         4.98925739482093   -2.79772165321127    1.90775045072602
H         6.16668636149256   -2.00312427344941    0.84979838787370
C         4.70529139521198   -3.84608305088567   -0.59085803716055
H         4.73997630886684   -4.54149034013104    0.24243979796255
H         5.69734525322368   -3.76293486906474   -1.02465371673492
H         4.01742947266834   -4.23654364996031   -1.33238302502782
C         4.15968052407521   -1.36214120774010   -1.15665246098910
O         3.05657075080967   -0.57813469327781   -0.68027782914929
C         5.40567235746446   -0.49509065401779   -1.30467443826439
H         6.25387333175400   -1.11238575537383   -1.58613385073761
H         5.23423385591770    0.24566417254937   -2.08061711514042
H         5.62403028923876    0.02503918036264   -0.37931834789179
C         3.75092848905281   -1.90914429806112   -2.53232560171898
H         2.85997547612000   -2.52255046532624   -2.42822187697680
H         3.50307293651372   -1.07122532214343   -3.17917617938945
H         4.55352302067548   -2.48171192647455   -2.98576993805349
H        -3.39087739821924   -3.97665896761326   -2.57255214663320
H        -5.18175435509001    1.48899393568039    1.27885957753757
C         0.23590000000005   -1.68139999999997    2.96030000000004
C        -0.87732071799972   -2.30623144458274    3.47611627661325
C         1.13546160187074   -1.55057489577856    4.05118185965961
N        -0.70525649107951   -2.51708466993393    4.81368287218211
H        -1.78031408387263   -2.62562743624951    2.98993814691363
C         0.52324525518493   -2.04892973375791    5.16641953601757
H         2.12544070402965   -1.14647398500155    3.98971206965795
C        -1.60181287341750   -3.21266691830143    5.69666727108380
H         0.86574186668172   -2.11899280767844    6.18083785154084
C        -2.32349643511610   -2.29246900490697    6.65243567358373
H        -2.33813684765504   -3.74887773825210    5.08984578930187
H        -1.04405412213286   -3.94247147454181    6.29121218808248
N        -2.31846161206563   -2.65330455621829    7.92797394308596
C        -2.96153429204398   -1.14071167407527    6.20284643991263
C        -2.95130601754346   -1.89214029464637    8.80434862025761
C        -3.62668854680844   -0.35034132369735    7.12392121395433
H        -2.92612786155136   -0.87996894100692    5.15649209510859
C        -3.62691446445600   -0.73258308318452    8.45788736040718
H        -2.90963491502580   -2.23590888834310    9.82965709361826
H        -4.13967561371929    0.54594589673454    6.80855987607702
H        -4.13464789334434   -0.14721820126863    9.20759254123503
106
 energy: -152.888812641142 gnorm: 0.039441960969 xtb: 6.4.0 (f63f532)
N        -0.92823925526953   -2.08980676564005   -0.27810135993550
C        -2.21063274603560   -1.68429099333143   -0.37494411927424
C        -3.11865026720363   -2.35560539243171   -1.20664241973714
C        -2.70636004531933   -3.45142537901589   -1.92931985138294
C        -1.38005017848040   -3.86748554976642   -1.80740677745713
C        -0.54276074414137   -3.15230287058381   -0.97857022289901
H         0.49189743511056   -3.44047737565427   -0.85351378537127
H        -1.01598389157086   -4.72653206533700   -2.34594715930612
H        -4.13906105840439   -2.01880325460956   -1.28762654478580
C        -2.57608586910422   -0.52859548550417    0.42465429571975
N        -1.58798604459756    0.03345657525507    1.15749511897752
C        -1.87863323079991    1.10193513041988    1.89618699386608
C        -3.13585579930346    1.66423345543297    1.96902247914797
C        -4.16901196219932    1.08656087974545    1.23108918804705
C        -3.87929324566133   -0.01141007206999    0.45332104976439
H        -4.66137432748112   -0.47203965321017   -0.12710885873910
H        -3.31147835376112    2.52684308400995    2.59013725320183
H        -1.04847848533172    1.52053606134868    2.44410856601173