      -----------------------------------------------------------      
     |                   =====================                   |     
     |                           x T B                           |     
     |                   =====================                   |     
     |                         S. Grimme                         |     
     |          Mulliken Center for Theoretical Chemistry        |     
     |                    University of Bonn                     |     
      -----------------------------------------------------------      

   * xtb version 6.4.0 (f63f532) compiled by 'knkr256@seskscpg008.prim.scp' on 2021-04-09

   xtb is free software: you can redistribute it and/or modify it under
   the terms of the GNU Lesser General Public License as published by
   the Free Software Foundation, either version 3 of the License, or
   (at your option) any later version.
   
   xtb is distributed in the hope that it will be useful,
   but WITHOUT ANY WARRANTY; without even the implied warranty of
   MERCHANTABILITY or FITNESS FOR A PARTICULAR PURPOSE.  See the
   GNU Lesser General Public License for more details.
   
   Cite this work as:
   * C. Bannwarth, E. Caldeweyher, S. Ehlert, A. Hansen, P. Pracht,
     J. Seibert, S. Spicher, S. Grimme, WIREs Comput. Mol. Sci., 2020, 11,
     e01493. DOI: 10.1002/wcms.1493
   
   for GFN2-xTB:
   * C. Bannwarth, S. Ehlert and S. Grimme., J. Chem. Theory Comput., 2019,
     15, 1652-1671. DOI: 10.1021/acs.jctc.8b01176
   for GFN1-xTB:
   * S. Grimme, C. Bannwarth, P. Shushkov, J. Chem. Theory Comput., 2017,
     13, 1989-2009. DOI: 10.1021/acs.jctc.7b00118
   for GFN0-xTB:
   * P. Pracht, E. Caldeweyher, S. Ehlert, S. Grimme, ChemRxiv, 2019, preprint.
     DOI: 10.26434/chemrxiv.8326202.v1
   for GFN-FF:
   * S. Spicher and S. Grimme, Angew. Chem. Int. Ed., 2020, 59, 15665-15673.
     DOI: 10.1002/anie.202004239
   
   for DFT-D4:
   * E. Caldeweyher, C. Bannwarth and S. Grimme, J. Chem. Phys., 2017,
     147, 034112. DOI: 10.1063/1.4993215
   * E. Caldeweyher, S. Ehlert, A. Hansen, H. Neugebauer, S. Spicher,
     C. Bannwarth and S. Grimme, J. Chem. Phys., 2019, 150, 154122.
     DOI: 10.1063/1.5090222
   * E. Caldeweyher, J.-M. Mewes, S. Ehlert and S. Grimme, Phys. Chem. Chem. Phys.
     2020, 22, 8499-8512. DOI: 10.1039/D0CP00502A
   
   for sTDA-xTB:
   * S. Grimme and C. Bannwarth, J. Chem. Phys., 2016, 145, 054103.
     DOI: 10.1063/1.4959605
   
   in the mass-spec context:
   * V. Asgeirsson, C. Bauer and S. Grimme, Chem. Sci., 2017, 8, 4879.
     DOI: 10.1039/c7sc00601b
   * J. Koopman and S. Grimme, ACS Omega 2019, 4, 12, 15120-15133.
     DOI: 10.1021/acsomega.9b02011
   
   for metadynamics refer to:
   * S. Grimme, J. Chem. Theory Comput., 2019, 155, 2847-2862
     DOI: 10.1021/acs.jctc.9b00143
   
   for SPH calculations refer to:
   * S. Spicher and S. Grimme, J. Chem. Theory Comput., 2021, 17, 1701-1714
     DOI: 10.1021/acs.jctc.0c01306
   
   with help from (in alphabetical order)
   P. Atkinson, C. Bannwarth, F. Bohle, G. Brandenburg, E. Caldeweyher
   M. Checinski, S. Dohm, S. Ehlert, S. Ehrlich, I. Gerasimov, J. Koopman
   C. Lavinge, S. Lehtola, F. März, M. Müller, F. Musil, H. Neugebauer
   J. Pisarek, P. Pracht, J. Seibert, P. Shushkov, S. Spicher, M. Stahn
   T. Strunk, J. Stückrath, T. Rose, and J. Unsleber
   
 * started run on 2021/10/08 at 07:27:30.654     

           -------------------------------------------------
          |                Calculation Setup                |
           -------------------------------------------------

          program call               : xtb xtbopt.xyz --sp --alpb thf -P 6
          hostname                   : seskscpg010.prim.scp
          coordinate file            : xtbopt.xyz
          omp threads                :                     6
          number of atoms            :                    96
          number of electrons        :                   256
          charge                     :                     0
          spin                       :                   0.0
          first test random number   :      0.90224648438904

   ID    Z sym.   atoms
    1    7 N      1, 11
    2    6 C      2-6, 10, 12-15, 23, 24, 28, 32, 34, 38, 44, 45, 49, 53, 55,
                  59, 65, 66, 70, 74, 76, 80, 86-89, 91, 93
    3    1 H      7-9, 16-18, 20, 25-27, 29-31, 35-37, 39-41, 46-48, 50-52,
                  56-58, 60-62, 67-69, 71-73, 77-79, 81-85, 90, 92, 95, 96
    4   77 Ir     19
    5    5 B      21, 42, 63
    6    8 O      22, 33, 43, 54, 64, 75
    7   17 Cl     94

molecular fragmentation (1/2 indicates fragments):
111111111111111111111111111111111111111111111111111111111111111111111111
111111111111122222222222
# atoms in fragment 1/2:    85    11
 fragment masses (1/2) :      730.32      111.55
CMA distance (Bohr)    :   9.676
constraining FC (au)   :  0.0500

           -------------------------------------------------
          |                 G F N 2 - x T B                 |
           -------------------------------------------------

        Reference                      10.1021/acs.jctc.8b01176
      * Hamiltonian:
        H0-scaling (s, p, d)           1.850000    2.230000    2.230000
        zeta-weighting                 0.500000
      * Dispersion:
        s8                             2.700000
        a1                             0.520000
        a2                             5.000000
        s9                             5.000000
      * Repulsion:
        kExp                           1.500000    1.000000
        rExp                           1.000000
      * Coulomb:
        alpha                          2.000000
        third order                    shell-resolved
        anisotropic                    true
        a3                             3.000000
        a5                             4.000000
        cn-shift                       1.200000
        cn-exp                         4.000000
        max-rad                        5.000000

      * Solvation model:               ALPB
        Solvent                        thf
        Parameter file                 internal GFN2-xTB/ALPB
        Dielectric constant                7.6000E+00
        Reference state                gsolv [1 M gas/solution]
        Free energy shift                  5.3248E-03 Eh       3.3414E+00 kcal/mol
        Temperature                        2.9815E+02 K
        Density                            8.8300E-01 kg/L
        Solvent mass                       7.2106E+01 g/mol
        Interaction kernel             P16
        Born radius scaling (c1)           1.7311E+00
        Born radii integrator          GBOBC
        Born offset                        0.0000E+00 a0       0.0000E+00 AA
        H-bond correction              true
        Ion screening                  false
        Surface tension                    1.0000E-05 Eh       1.5569E+01 dyn/cm
        Grid points                               230 per atom
q/qsh data taken from xtbrestart
CAMM data taken from xtbrestart

          ...................................................
          :                      SETUP                      :
          :.................................................:
          :  # basis functions                 249          :
          :  # atomic orbitals                 247          :
          :  # shells                          145          :
          :  # electrons                       256          :
          :  max. iterations                   250          :
          :  Hamiltonian                  GFN2-xTB          :
          :  restarted?                       true          :
          :  GBSA solvation                   true          :
          :  PC potential                    false          :
          :  electronic temp.          300.0000000     K    :
          :  accuracy                    1.0000000          :
          :  -> integral cutoff          0.2500000E+02      :
          :  -> integral neglect         0.1000000E-07      :
          :  -> SCF convergence          0.1000000E-05 Eh   :
          :  -> wf. convergence          0.1000000E-03 e    :
          :  Broyden damping             0.4000000          :
          ...................................................

 iter      E             dE          RMSdq      gap      omega  full diag
   1   -142.2605433 -0.142261E+03  0.595E-05    0.90       0.0  T
   2   -142.2605433  0.383409E-10  0.634E-05    0.90     160.9  T
   3   -142.2605433 -0.112180E-09  0.470E-05    0.90     217.3  T

   *** convergence criteria satisfied after 3 iterations ***

         #    Occupation            Energy/Eh            Energy/eV
      -------------------------------------------------------------
         1        2.0000           -1.0505995             -28.5883
       ...           ...                  ...                  ...
       122        2.0000           -0.3821064             -10.3976
       123        2.0000           -0.3493029              -9.5050
       124        2.0000           -0.3328025              -9.0560
       125        2.0000           -0.3238093              -8.8113
       126        2.0000           -0.3204986              -8.7212
       127        2.0000           -0.3122747              -8.4974
       128        2.0000           -0.3098524              -8.4315 (HOMO)
       129                         -0.2769469              -7.5361 (LUMO)
       130                         -0.2487785              -6.7696
       131                         -0.2463689              -6.7040
       132                         -0.2207685              -6.0074
       133                         -0.2184230              -5.9436
       ...                                ...                  ...
       247                          3.7784805             102.8177
      -------------------------------------------------------------
                  HL-Gap            0.0329054 Eh            0.8954 eV
             Fermi-level           -0.2933639 Eh           -7.9828 eV

 SCC (total)                   0 d,  0 h,  0 min,  0.103 sec
 SCC setup                      ...        0 min,  0.003 sec (  2.586%)
 Dispersion                     ...        0 min,  0.002 sec (  1.981%)
 classical contributions        ...        0 min,  0.000 sec (  0.133%)
 integral evaluation            ...        0 min,  0.028 sec ( 27.074%)
 iterations                     ...        0 min,  0.031 sec ( 30.391%)
 molecular gradient             ...        0 min,  0.038 sec ( 37.190%)
 printout                       ...        0 min,  0.001 sec (  0.589%)

         :::::::::::::::::::::::::::::::::::::::::::::::::::::
         ::                     SUMMARY                     ::
         :::::::::::::::::::::::::::::::::::::::::::::::::::::
         :: total energy            -140.483603466298 Eh    ::
         :: total w/o Gsasa/hb      -140.443921051900 Eh    ::
         :: gradient norm              0.034434002516 Eh/a0 ::
         :: HOMO-LUMO gap              0.895402501476 eV    ::
         ::.................................................::
         :: SCC energy              -142.260543316394 Eh    ::
         :: -> isotropic ES            0.235975639010 Eh    ::
         :: -> anisotropic ES          0.010565476214 Eh    ::
         :: -> anisotropic XC          0.046101624722 Eh    ::
         :: -> dispersion             -0.134260194307 Eh    ::
         :: -> Gsolv                  -0.048954089691 Eh    ::
         ::    -> Gelec               -0.009271675293 Eh    ::
         ::    -> Gsasa               -0.042507389153 Eh    ::
         ::    -> Ghb                 -0.002499840689 Eh    ::
         ::    -> Gshift               0.005324815444 Eh    ::
         :: repulsion energy           1.768966277249 Eh    ::
         :: add. restraining           0.000000000000 Eh    ::
         :: total charge               0.000000000002 e     ::
         :::::::::::::::::::::::::::::::::::::::::::::::::::::

           -------------------------------------------------
          |                Property Printout                |
           -------------------------------------------------

    * Orbital Energies and Occupations

         #    Occupation            Energy/Eh            Energy/eV
      -------------------------------------------------------------
         1        2.0000           -1.0505995             -28.5883
       ...           ...                  ...                  ...
       116        2.0000           -0.4026411             -10.9564
       117        2.0000           -0.3910027             -10.6397
       118        2.0000           -0.3882563             -10.5650
       119        2.0000           -0.3861410             -10.5074
       120        2.0000           -0.3857252             -10.4961
       121        2.0000           -0.3830078             -10.4222
       122        2.0000           -0.3821064             -10.3976
       123        2.0000           -0.3493029              -9.5050
       124        2.0000           -0.3328025              -9.0560
       125        2.0000           -0.3238093              -8.8113
       126        2.0000           -0.3204986              -8.7212
       127        2.0000           -0.3122747              -8.4974
       128        2.0000           -0.3098524              -8.4315 (HOMO)
       129                         -0.2769469              -7.5361 (LUMO)
       130                         -0.2487785              -6.7696
       131                         -0.2463689              -6.7040
       132                         -0.2207685              -6.0074
       133                         -0.2184230              -5.9436
       134                         -0.2052180              -5.5843
       135                         -0.1884824              -5.1289
       136                         -0.1527921              -4.1577
       137                         -0.1316081              -3.5812
       138                         -0.1267091              -3.4479
       139                         -0.1236551              -3.3648
       ...                                ...                  ...
       247                          3.7784805             102.8177
      -------------------------------------------------------------
                  HL-Gap            0.0329054 Eh            0.8954 eV
             Fermi-level           -0.2933639 Eh           -7.9828 eV

     #   Z          covCN         q      C6AA      α(0)
     1   7 N        2.548    -0.121    23.656     7.223
     2   6 C        2.954     0.077    26.281     8.408
     3   6 C        2.918    -0.043    29.063     8.840
     4   6 C        2.924    -0.022    28.547     8.762
     5   6 C        2.915    -0.043    29.075     8.842
     6   6 C        2.892     0.048    26.926     8.508
     7   1 H        0.926     0.055     2.259     2.350
     8   1 H        0.926     0.057     2.236     2.338
     9   1 H        0.926     0.047     2.359     2.402
    10   6 C        2.953     0.073    26.363     8.421
    11   7 N        2.552    -0.127    23.792     7.244
    12   6 C        2.890     0.042    27.056     8.528
    13   6 C        2.915    -0.044    29.090     8.844
    14   6 C        2.922    -0.024    28.594     8.769
    15   6 C        2.918    -0.045    29.113     8.848
    16   1 H        0.926     0.046     2.371     2.408
    17   1 H        0.926     0.052     2.300     2.371
    18   1 H        0.926     0.077     2.005     2.214
    19  77 Ir       5.937    -0.153   387.832    36.418
    20   1 H        0.977     0.096     1.819     2.108
    21   5 B        2.632     0.402    16.025     6.761
    22   8 O        1.638    -0.407    20.988     6.184
    23   6 C        3.836     0.130    18.453     6.111
    24   6 C        3.755    -0.122    22.893     6.822
    25   1 H        0.925     0.054     2.268     2.355
    26   1 H        0.925     0.045     2.383     2.414
    27   1 H        0.925     0.051     2.304     2.374
    28   6 C        3.754    -0.110    22.652     6.786
    29   1 H        0.925     0.048     2.349     2.397
    30   1 H        0.925     0.042     2.428     2.437
    31   1 H        0.925     0.028     2.616     2.529
    32   6 C        3.842     0.130    18.441     6.109
    33   8 O        1.637    -0.402    20.894     6.170
    34   6 C        3.755    -0.122    22.890     6.822
    35   1 H        0.925     0.052     2.294     2.368
    36   1 H        0.925     0.046     2.370     2.407
    37   1 H        0.925     0.050     2.320     2.382
    38   6 C        3.754    -0.120    22.865     6.818
    39   1 H        0.925     0.047     2.356     2.400
    40   1 H        0.925     0.054     2.275     2.359
    41   1 H        0.925     0.045     2.380     2.412
    42   5 B        2.626     0.401    16.068     6.776
    43   8 O        1.637    -0.382    20.510     6.113
    44   6 C        3.837     0.128    18.477     6.115
    45   6 C        3.755    -0.127    22.989     6.837
    46   1 H        0.925     0.056     2.248     2.345
    47   1 H        0.925     0.056     2.242     2.341
    48   1 H        0.925     0.050     2.321     2.382
    49   6 C        3.755    -0.122    22.903     6.824
    50   1 H        0.925     0.049     2.334     2.389
    51   1 H        0.925     0.047     2.363     2.404
    52   1 H        0.925     0.053     2.284     2.363
    53   6 C        3.833     0.127    18.494     6.119
    54   8 O        1.637    -0.381    20.497     6.111
    55   6 C        3.755    -0.125    22.952     6.831
    56   1 H        0.925     0.055     2.264     2.353
    57   1 H        0.925     0.054     2.266     2.354
    58   1 H        0.925     0.049     2.338     2.391
    59   6 C        3.755    -0.125    22.953     6.831
    60   1 H        0.925     0.045     2.381     2.413
    61   1 H        0.925     0.053     2.278     2.360
    62   1 H        0.925     0.051     2.312     2.378
    63   5 B        2.626     0.400    16.076     6.778
    64   8 O        1.637    -0.377    20.427     6.101
    65   6 C        3.832     0.125    18.535     6.125
    66   6 C        3.755    -0.132    23.089     6.851
    67   1 H        0.925     0.060     2.197     2.318
    68   1 H        0.925     0.054     2.265     2.354
    69   1 H        0.925     0.050     2.314     2.379
    70   6 C        3.755    -0.130    23.045     6.845
    71   1 H        0.925     0.061     2.190     2.314
    72   1 H        0.925     0.051     2.310     2.377
    73   1 H        0.925     0.052     2.296     2.369
    74   6 C        3.829     0.127    18.504     6.121
    75   8 O        1.637    -0.377    20.415     6.099
    76   6 C        3.755    -0.125    22.951     6.831
    77   1 H        0.925     0.051     2.306     2.375
    78   1 H        0.925     0.054     2.270     2.356
    79   1 H        0.925     0.056     2.252     2.347
    80   6 C        3.755    -0.123    22.911     6.825
    81   1 H        0.925     0.041     2.434     2.440
    82   1 H        0.925     0.050     2.323     2.383
    83   1 H        0.925     0.055     2.260     2.351
    84   1 H        0.926     0.053     2.280     2.361
    85   1 H        0.926     0.050     2.325     2.385
    86   6 C        2.832    -0.021    28.522     8.752
    87   6 C        2.958    -0.039    28.971     8.828
    88   6 C        2.920    -0.039    28.975     8.827
    89   6 C        2.889     0.090    26.006     8.361
    90   1 H        0.926     0.041     2.435     2.440
    91   6 C        2.922    -0.034    28.836     8.806
    92   1 H        0.926     0.054     2.276     2.359
    93   6 C        2.950    -0.053    29.308     8.879
    94  17 Cl       0.961    -0.231   106.452    15.785
    95   1 H        0.926     0.051     2.301     2.372
    96   1 H        0.926     0.053     2.281     2.362

 Mol. C6AA /au·bohr⁶  :     102769.509575
 Mol. C8AA /au·bohr⁸  :    2804605.299887
 Mol. α(0) /au        :        497.755206


Wiberg/Mayer (AO) data.
largest (>0.10) Wiberg bond orders for each atom

 ---------------------------------------------------------------------------
     #   Z sym  total        # sym  WBO       # sym  WBO       # sym  WBO
 ---------------------------------------------------------------------------
     1   7 N    3.400 --     6 C    1.390     2 C    1.314    19 Ir   0.436
     2   6 C    3.979 --     3 C    1.349     1 N    1.314    10 C    1.090
     3   6 C    3.988 --     4 C    1.482     2 C    1.349     9 H    0.962
                             6 C    0.106
     4   6 C    3.985 --     3 C    1.482     5 C    1.384    84 H    0.969
     5   6 C    3.979 --     6 C    1.459     4 C    1.384     8 H    0.968
     6   6 C    3.978 --     5 C    1.459     1 N    1.390     7 H    0.957
                             3 C    0.106
     7   1 H    0.997 --     6 C    0.957
     8   1 H    0.996 --     5 C    0.968
     9   1 H    0.997 --     3 C    0.962
    10   6 C    3.979 --    15 C    1.355    11 N    1.307     2 C    1.090
    11   7 N    3.400 --    12 C    1.389    10 C    1.307    19 Ir   0.424
    12   6 C    3.973 --    13 C    1.456    11 N    1.389    18 H    0.948
                            15 C    0.105
    13   6 C    3.982 --    12 C    1.456    14 C    1.387    17 H    0.969
    14   6 C    3.983 --    15 C    1.477    13 C    1.387    85 H    0.969
    15   6 C    3.989 --    14 C    1.477    10 C    1.355    16 H    0.962
                            12 C    0.105
    16   1 H    0.997 --    15 C    0.962
    17   1 H    0.996 --    13 C    0.969
    18   1 H    0.994 --    12 C    0.948
    19  77 Ir   5.159 --    63 B    0.868    42 B    0.860    21 B    0.734
                            86 C    0.582    20 H    0.530     1 N    0.436
                            11 N    0.424
    20   1 H    0.989 --    19 Ir   0.530    86 C    0.353
    21   5 B    3.276 --    33 O    1.112    22 O    1.093    19 Ir   0.734
    22   8 O    2.193 --    21 B    1.093    23 C    0.942
    23   6 C    3.943 --    24 C    0.997    28 C    0.990    22 O    0.942
                            32 C    0.941
    24   6 C    3.994 --    23 C    0.997    26 H    0.984    27 H    0.983
                            25 H    0.983
    25   1 H    0.997 --    24 C    0.983
    26   1 H    0.997 --    24 C    0.984
    27   1 H    0.997 --    24 C    0.983
    28   6 C    3.997 --    23 C    0.990    31 H    0.985    29 H    0.984
                            30 H    0.984
    29   1 H    0.997 --    28 C    0.984
    30   1 H    0.998 --    28 C    0.984
    31   1 H    0.999 --    28 C    0.985
    32   6 C    3.940 --    38 C    0.997    34 C    0.991    23 C    0.941
                            33 O    0.939
    33   8 O    2.202 --    21 B    1.112    32 C    0.939
    34   6 C    3.994 --    32 C    0.991    36 H    0.984    37 H    0.982
                            35 H    0.981
    35   1 H    0.997 --    34 C    0.981
    36   1 H    0.997 --    34 C    0.984
    37   1 H    0.997 --    34 C    0.982
    38   6 C    3.994 --    32 C    0.997    41 H    0.984    39 H    0.983
                            40 H    0.983
    39   1 H    0.998 --    38 C    0.983
    40   1 H    0.997 --    38 C    0.983
    41   1 H    0.997 --    38 C    0.984
    42   5 B    3.337 --    43 O    1.118    54 O    1.111    19 Ir   0.860
    43   8 O    2.226 --    42 B    1.118    44 C    0.935
    44   6 C    3.937 --    45 C    0.997    49 C    0.991    53 C    0.939
                            43 O    0.935
    45   6 C    3.992 --    44 C    0.997    48 H    0.983    46 H    0.982
                            47 H    0.982
    46   1 H    0.997 --    45 C    0.982
    47   1 H    0.997 --    45 C    0.982
    48   1 H    0.996 --    45 C    0.983
    49   6 C    3.994 --    44 C    0.991    50 H    0.983    51 H    0.982
                            52 H    0.980
    50   1 H    0.997 --    49 C    0.983
    51   1 H    0.998 --    49 C    0.982
    52   1 H    0.997 --    49 C    0.980
    53   6 C    3.937 --    55 C    0.996    59 C    0.992    44 C    0.939
                            54 O    0.934
    54   8 O    2.229 --    42 B    1.111    53 C    0.934
    55   6 C    3.993 --    53 C    0.996    58 H    0.983    57 H    0.983
                            56 H    0.982
    56   1 H    0.997 --    55 C    0.982
    57   1 H    0.997 --    55 C    0.983
    58   1 H    0.996 --    55 C    0.983
    59   6 C    3.994 --    53 C    0.992    62 H    0.983    61 H    0.983
                            60 H    0.982
    60   1 H    0.998 --    59 C    0.982
    61   1 H    0.996 --    59 C    0.983
    62   1 H    0.997 --    59 C    0.983
    63   5 B    3.365 --    75 O    1.123    64 O    1.111    19 Ir   0.868
    64   8 O    2.229 --    63 B    1.111    65 C    0.938
    65   6 C    3.937 --    70 C    0.996    66 C    0.991    64 O    0.938
                            74 C    0.938
    66   6 C    3.992 --    65 C    0.991    69 H    0.983    68 H    0.982
                            67 H    0.978
    67   1 H    0.996 --    66 C    0.978
    68   1 H    0.997 --    66 C    0.982
    69   1 H    0.996 --    66 C    0.983
    70   6 C    3.992 --    65 C    0.996    72 H    0.983    73 H    0.982
                            71 H    0.982
    71   1 H    0.996 --    70 C    0.982
    72   1 H    0.996 --    70 C    0.983
    73   1 H    0.997 --    70 C    0.982
    74   6 C    3.935 --    76 C    0.996    80 C    0.991    65 C    0.938
                            75 O    0.935
    75   8 O    2.238 --    63 B    1.123    74 C    0.935
    76   6 C    3.992 --    74 C    0.996    77 H    0.983    78 H    0.982
                            79 H    0.981
    77   1 H    0.996 --    76 C    0.983
    78   1 H    0.997 --    76 C    0.982
    79   1 H    0.997 --    76 C    0.981
    80   6 C    3.995 --    74 C    0.991    81 H    0.984    83 H    0.983
                            82 H    0.983
    81   1 H    0.998 --    80 C    0.984
    82   1 H    0.997 --    80 C    0.983
    83   1 H    0.996 --    80 C    0.983
    84   1 H    0.996 --     4 C    0.969
    85   1 H    0.996 --    14 C    0.969
    86   6 C    3.943 --    87 C    1.383    88 C    1.374    19 Ir   0.582
                            20 H    0.353
    87   6 C    3.987 --    89 C    1.410    86 C    1.383    90 H    0.962
                            91 C    0.102
    88   6 C    3.989 --    91 C    1.453    86 C    1.374    92 H    0.960
    89   6 C    3.896 --    93 C    1.410    87 C    1.410    94 Cl   0.932
    90   1 H    0.998 --    87 C    0.962
    91   6 C    3.987 --    88 C    1.453    93 C    1.417    95 H    0.967
                            87 C    0.102
    92   1 H    0.996 --    88 C    0.960
    93   6 C    3.983 --    91 C    1.417    89 C    1.410    96 H    0.968
    94  17 Cl   1.052 --    89 C    0.932
    95   1 H    0.995 --    91 C    0.967
    96   1 H    0.996 --    93 C    0.968
 ---------------------------------------------------------------------------

Topologies differ in total number of bonds
Writing topology from bond orders to xtbtopo.mol

molecular dipole:
                 x           y           z       tot (Debye)
 q only:        1.378       0.775      -1.476
   full:       -0.036       0.947      -1.856       5.297
molecular quadrupole (traceless):
                xx          xy          yy          xz          yz          zz
 q only:       11.798      -7.376       0.884      20.635      20.430     -12.682
  q+dip:       14.324      -4.429      -2.262      18.864      23.965     -12.062
   full:       12.269      -3.535       0.175      16.480      20.954     -12.443


           -------------------------------------------------
          | TOTAL ENERGY             -140.483603466298 Eh   |
          | GRADIENT NORM               0.034434002516 Eh/α |
          | HOMO-LUMO GAP               0.895402501476 eV   |
           -------------------------------------------------

------------------------------------------------------------------------
 * finished run on 2021/10/08 at 07:27:30.798     
------------------------------------------------------------------------
 total:
 * wall-time:     0 d,  0 h,  0 min,  0.144 sec
 *  cpu-time:     0 d,  0 h,  0 min,  0.842 sec
 * ratio c/w:     5.850 speedup
 SCF:
 * wall-time:     0 d,  0 h,  0 min,  0.104 sec
 *  cpu-time:     0 d,  0 h,  0 min,  0.624 sec
 * ratio c/w:     5.975 speedup

