      -----------------------------------------------------------      
     |                   =====================                   |     
     |                           x T B                           |     
     |                   =====================                   |     
     |                         S. Grimme                         |     
     |          Mulliken Center for Theoretical Chemistry        |     
     |                    University of Bonn                     |     
      -----------------------------------------------------------      

   * xtb version 6.4.0 (f63f532) compiled by 'knkr256@seskscpg008.prim.scp' on 2021-04-09

   xtb is free software: you can redistribute it and/or modify it under
   the terms of the GNU Lesser General Public License as published by
   the Free Software Foundation, either version 3 of the License, or
   (at your option) any later version.
   
   xtb is distributed in the hope that it will be useful,
   but WITHOUT ANY WARRANTY; without even the implied warranty of
   MERCHANTABILITY or FITNESS FOR A PARTICULAR PURPOSE.  See the
   GNU Lesser General Public License for more details.
   
   Cite this work as:
   * C. Bannwarth, E. Caldeweyher, S. Ehlert, A. Hansen, P. Pracht,
     J. Seibert, S. Spicher, S. Grimme, WIREs Comput. Mol. Sci., 2020, 11,
     e01493. DOI: 10.1002/wcms.1493
   
   for GFN2-xTB:
   * C. Bannwarth, S. Ehlert and S. Grimme., J. Chem. Theory Comput., 2019,
     15, 1652-1671. DOI: 10.1021/acs.jctc.8b01176
   for GFN1-xTB:
   * S. Grimme, C. Bannwarth, P. Shushkov, J. Chem. Theory Comput., 2017,
     13, 1989-2009. DOI: 10.1021/acs.jctc.7b00118
   for GFN0-xTB:
   * P. Pracht, E. Caldeweyher, S. Ehlert, S. Grimme, ChemRxiv, 2019, preprint.
     DOI: 10.26434/chemrxiv.8326202.v1
   for GFN-FF:
   * S. Spicher and S. Grimme, Angew. Chem. Int. Ed., 2020, 59, 15665-15673.
     DOI: 10.1002/anie.202004239
   
   for DFT-D4:
   * E. Caldeweyher, C. Bannwarth and S. Grimme, J. Chem. Phys., 2017,
     147, 034112. DOI: 10.1063/1.4993215
   * E. Caldeweyher, S. Ehlert, A. Hansen, H. Neugebauer, S. Spicher,
     C. Bannwarth and S. Grimme, J. Chem. Phys., 2019, 150, 154122.
     DOI: 10.1063/1.5090222
   * E. Caldeweyher, J.-M. Mewes, S. Ehlert and S. Grimme, Phys. Chem. Chem. Phys.
     2020, 22, 8499-8512. DOI: 10.1039/D0CP00502A
   
   for sTDA-xTB:
   * S. Grimme and C. Bannwarth, J. Chem. Phys., 2016, 145, 054103.
     DOI: 10.1063/1.4959605
   
   in the mass-spec context:
   * V. Asgeirsson, C. Bauer and S. Grimme, Chem. Sci., 2017, 8, 4879.
     DOI: 10.1039/c7sc00601b
   * J. Koopman and S. Grimme, ACS Omega 2019, 4, 12, 15120-15133.
     DOI: 10.1021/acsomega.9b02011
   
   for metadynamics refer to:
   * S. Grimme, J. Chem. Theory Comput., 2019, 155, 2847-2862
     DOI: 10.1021/acs.jctc.9b00143
   
   for SPH calculations refer to:
   * S. Spicher and S. Grimme, J. Chem. Theory Comput., 2021, 17, 1701-1714
     DOI: 10.1021/acs.jctc.0c01306
   
   with help from (in alphabetical order)
   P. Atkinson, C. Bannwarth, F. Bohle, G. Brandenburg, E. Caldeweyher
   M. Checinski, S. Dohm, S. Ehlert, S. Ehrlich, I. Gerasimov, J. Koopman
   C. Lavinge, S. Lehtola, F. März, M. Müller, F. Musil, H. Neugebauer
   J. Pisarek, P. Pracht, J. Seibert, P. Shushkov, S. Spicher, M. Stahn
   T. Strunk, J. Stückrath, T. Rose, and J. Unsleber
   
 * started run on 2021/10/08 at 07:26:34.009     

           -------------------------------------------------
          |                Calculation Setup                |
           -------------------------------------------------

          program call               : xtb xtbopt.xyz --sp --alpb thf -P 6
          hostname                   : seskscpg010.prim.scp
          coordinate file            : xtbopt.xyz
          omp threads                :                     6
          number of atoms            :                    94
          number of electrons        :                   250
          charge                     :                     0
          spin                       :                   0.0
          first test random number   :      0.51894299644518

   ID    Z sym.   atoms
    1    7 N      1, 11, 89, 93
    2    6 C      2-6, 10, 12-15, 23, 24, 28, 32, 34, 38, 44, 45, 49, 53, 55,
                  59, 65, 66, 70, 74, 76, 80, 86-88, 91
    3    1 H      7-9, 16-18, 20, 25-27, 29-31, 35-37, 39-41, 46-48, 50-52,
                  56-58, 60-62, 67-69, 71-73, 77-79, 81-85, 90, 92, 94
    4   77 Ir     19
    5    5 B      21, 42, 63
    6    8 O      22, 33, 43, 54, 64, 75

molecular fragmentation (1/2 indicates fragments):
111111111111111111111111111111111111111111111111111111111111111111111111
1111111111111222222222
# atoms in fragment 1/2:    85     9
 fragment masses (1/2) :      730.32       79.08
CMA distance (Bohr)    :   8.647
constraining FC (au)   :  0.0500

           -------------------------------------------------
          |                 G F N 2 - x T B                 |
           -------------------------------------------------

        Reference                      10.1021/acs.jctc.8b01176
      * Hamiltonian:
        H0-scaling (s, p, d)           1.850000    2.230000    2.230000
        zeta-weighting                 0.500000
      * Dispersion:
        s8                             2.700000
        a1                             0.520000
        a2                             5.000000
        s9                             5.000000
      * Repulsion:
        kExp                           1.500000    1.000000
        rExp                           1.000000
      * Coulomb:
        alpha                          2.000000
        third order                    shell-resolved
        anisotropic                    true
        a3                             3.000000
        a5                             4.000000
        cn-shift                       1.200000
        cn-exp                         4.000000
        max-rad                        5.000000

      * Solvation model:               ALPB
        Solvent                        thf
        Parameter file                 internal GFN2-xTB/ALPB
        Dielectric constant                7.6000E+00
        Reference state                gsolv [1 M gas/solution]
        Free energy shift                  5.3248E-03 Eh       3.3414E+00 kcal/mol
        Temperature                        2.9815E+02 K
        Density                            8.8300E-01 kg/L
        Solvent mass                       7.2106E+01 g/mol
        Interaction kernel             P16
        Born radius scaling (c1)           1.7311E+00
        Born radii integrator          GBOBC
        Born offset                        0.0000E+00 a0       0.0000E+00 AA
        H-bond correction              true
        Ion screening                  false
        Surface tension                    1.0000E-05 Eh       1.5569E+01 dyn/cm
        Grid points                               230 per atom
q/qsh data taken from xtbrestart
CAMM data taken from xtbrestart

          ...................................................
          :                      SETUP                      :
          :.................................................:
          :  # basis functions                 238          :
          :  # atomic orbitals                 237          :
          :  # shells                          141          :
          :  # electrons                       250          :
          :  max. iterations                   250          :
          :  Hamiltonian                  GFN2-xTB          :
          :  restarted?                       true          :
          :  GBSA solvation                   true          :
          :  PC potential                    false          :
          :  electronic temp.          300.0000000     K    :
          :  accuracy                    1.0000000          :
          :  -> integral cutoff          0.2500000E+02      :
          :  -> integral neglect         0.1000000E-07      :
          :  -> SCF convergence          0.1000000E-05 Eh   :
          :  -> wf. convergence          0.1000000E-03 e    :
          :  Broyden damping             0.4000000          :
          ...................................................

 iter      E             dE          RMSdq      gap      omega  full diag
   1   -138.6726938 -0.138673E+03  0.604E-05    0.93       0.0  T
   2   -138.6726938  0.569855E-10  0.521E-05    0.93     198.0  T
   3   -138.6726938  0.372324E-10  0.507E-05    0.93     203.6  T

   *** convergence criteria satisfied after 3 iterations ***

         #    Occupation            Energy/Eh            Energy/eV
      -------------------------------------------------------------
         1        2.0000           -0.6786231             -18.4663
       ...           ...                  ...                  ...
       119        2.0000           -0.3608682              -9.8197
       120        2.0000           -0.3478585              -9.4657
       121        2.0000           -0.3389592              -9.2235
       122        2.0000           -0.3303391              -8.9890
       123        2.0000           -0.3252855              -8.8515
       124        2.0000           -0.3197237              -8.7001
       125        2.0000           -0.3157096              -8.5909 (HOMO)
       126                         -0.2813579              -7.6561 (LUMO)
       127                         -0.2561568              -6.9704
       128                         -0.2521566              -6.8615
       129                         -0.2504862              -6.8161
       130                         -0.2371564              -6.4534
       ...                                ...                  ...
       237                          3.7522600             102.1042
      -------------------------------------------------------------
                  HL-Gap            0.0343517 Eh            0.9348 eV
             Fermi-level           -0.2985269 Eh           -8.1233 eV

 SCC (total)                   0 d,  0 h,  0 min,  0.094 sec
 SCC setup                      ...        0 min,  0.003 sec (  2.733%)
 Dispersion                     ...        0 min,  0.002 sec (  2.216%)
 classical contributions        ...        0 min,  0.000 sec (  0.136%)
 integral evaluation            ...        0 min,  0.024 sec ( 25.326%)
 iterations                     ...        0 min,  0.030 sec ( 31.989%)
 molecular gradient             ...        0 min,  0.035 sec ( 36.949%)
 printout                       ...        0 min,  0.001 sec (  0.580%)

         :::::::::::::::::::::::::::::::::::::::::::::::::::::
         ::                     SUMMARY                     ::
         :::::::::::::::::::::::::::::::::::::::::::::::::::::
         :: total energy            -136.951187788452 Eh    ::
         :: total w/o Gsasa/hb      -136.912637839368 Eh    ::
         :: gradient norm              0.034870160308 Eh/a0 ::
         :: HOMO-LUMO gap              0.934757409168 eV    ::
         ::.................................................::
         :: SCC energy              -138.672693838182 Eh    ::
         :: -> isotropic ES            0.245249193512 Eh    ::
         :: -> anisotropic ES          0.011246582056 Eh    ::
         :: -> anisotropic XC          0.057258063922 Eh    ::
         :: -> dispersion             -0.129472616686 Eh    ::
         :: -> Gsolv                  -0.050204422648 Eh    ::
         ::    -> Gelec               -0.011654473563 Eh    ::
         ::    -> Gsasa               -0.041363222888 Eh    ::
         ::    -> Ghb                 -0.002511541640 Eh    ::
         ::    -> Gshift               0.005324815444 Eh    ::
         :: repulsion energy           1.713838163651 Eh    ::
         :: add. restraining           0.000000000000 Eh    ::
         :: total charge               0.000000000413 e     ::
         :::::::::::::::::::::::::::::::::::::::::::::::::::::

           -------------------------------------------------
          |                Property Printout                |
           -------------------------------------------------

    * Orbital Energies and Occupations

         #    Occupation            Energy/Eh            Energy/eV
      -------------------------------------------------------------
         1        2.0000           -0.6786231             -18.4663
       ...           ...                  ...                  ...
       113        2.0000           -0.4040953             -10.9960
       114        2.0000           -0.3940517             -10.7227
       115        2.0000           -0.3925507             -10.6818
       116        2.0000           -0.3901267             -10.6159
       117        2.0000           -0.3882307             -10.5643
       118        2.0000           -0.3874818             -10.5439
       119        2.0000           -0.3608682              -9.8197
       120        2.0000           -0.3478585              -9.4657
       121        2.0000           -0.3389592              -9.2235
       122        2.0000           -0.3303391              -8.9890
       123        2.0000           -0.3252855              -8.8515
       124        2.0000           -0.3197237              -8.7001
       125        2.0000           -0.3157096              -8.5909 (HOMO)
       126                         -0.2813579              -7.6561 (LUMO)
       127                         -0.2561568              -6.9704
       128                         -0.2521566              -6.8615
       129                         -0.2504862              -6.8161
       130                         -0.2371564              -6.4534
       131                         -0.2098280              -5.7097
       132                         -0.1978759              -5.3845
       133                         -0.1585205              -4.3136
       134                         -0.1311539              -3.5689
       135                         -0.1294490              -3.5225
       136                         -0.1178564              -3.2070
       ...                                ...                  ...
       237                          3.7522600             102.1042
      -------------------------------------------------------------
                  HL-Gap            0.0343517 Eh            0.9348 eV
             Fermi-level           -0.2985269 Eh           -8.1233 eV

     #   Z          covCN         q      C6AA      α(0)
     1   7 N        2.549    -0.122    23.674     7.226
     2   6 C        2.955     0.078    26.264     8.406
     3   6 C        2.918    -0.043    29.064     8.841
     4   6 C        2.924    -0.021    28.521     8.758
     5   6 C        2.915    -0.043    29.062     8.840
     6   6 C        2.893     0.048    26.913     8.506
     7   1 H        0.926     0.054     2.271     2.357
     8   1 H        0.926     0.060     2.200     2.319
     9   1 H        0.926     0.052     2.292     2.367
    10   6 C        2.954     0.074    26.334     8.417
    11   7 N        2.548    -0.131    23.865     7.255
    12   6 C        2.890     0.042    27.050     8.527
    13   6 C        2.915    -0.043    29.068     8.841
    14   6 C        2.923    -0.023    28.576     8.766
    15   6 C        2.919    -0.044    29.085     8.844
    16   1 H        0.926     0.051     2.309     2.376
    17   1 H        0.926     0.055     2.256     2.349
    18   1 H        0.926     0.075     2.033     2.230
    19  77 Ir       5.933    -0.150   387.514    36.403
    20   1 H        0.977     0.084     1.934     2.173
    21   5 B        2.634     0.404    15.988     6.752
    22   8 O        1.638    -0.404    20.935     6.176
    23   6 C        3.836     0.130    18.457     6.112
    24   6 C        3.755    -0.123    22.912     6.825
    25   1 H        0.925     0.054     2.265     2.353
    26   1 H        0.925     0.046     2.365     2.405
    27   1 H        0.925     0.053     2.284     2.363
    28   6 C        3.754    -0.111    22.680     6.791
    29   1 H        0.925     0.049     2.326     2.385
    30   1 H        0.925     0.043     2.403     2.424
    31   1 H        0.925     0.028     2.609     2.526
    32   6 C        3.842     0.130    18.440     6.109
    33   8 O        1.637    -0.401    20.887     6.169
    34   6 C        3.755    -0.123    22.906     6.824
    35   1 H        0.925     0.053     2.287     2.365
    36   1 H        0.925     0.048     2.349     2.397
    37   1 H        0.925     0.050     2.314     2.379
    38   6 C        3.754    -0.121    22.879     6.820
    39   1 H        0.925     0.048     2.348     2.396
    40   1 H        0.925     0.054     2.267     2.355
    41   1 H        0.925     0.047     2.358     2.401
    42   5 B        2.625     0.402    16.064     6.776
    43   8 O        1.637    -0.384    20.545     6.118
    44   6 C        3.837     0.129    18.471     6.114
    45   6 C        3.755    -0.126    22.980     6.835
    46   1 H        0.925     0.054     2.274     2.358
    47   1 H        0.925     0.058     2.228     2.334
    48   1 H        0.925     0.051     2.305     2.374
    49   6 C        3.755    -0.123    22.914     6.825
    50   1 H        0.925     0.050     2.314     2.379
    51   1 H        0.925     0.047     2.354     2.399
    52   1 H        0.925     0.054     2.274     2.358
    53   6 C        3.832     0.128    18.482     6.117
    54   8 O        1.637    -0.385    20.567     6.122
    55   6 C        3.755    -0.125    22.960     6.832
    56   1 H        0.925     0.056     2.249     2.345
    57   1 H        0.925     0.055     2.257     2.349
    58   1 H        0.925     0.050     2.319     2.381
    59   6 C        3.755    -0.122    22.891     6.822
    60   1 H        0.925     0.039     2.460     2.453
    61   1 H        0.925     0.055     2.261     2.352
    62   1 H        0.925     0.051     2.313     2.379
    63   5 B        2.627     0.404    16.025     6.765
    64   8 O        1.637    -0.380    20.470     6.107
    65   6 C        3.832     0.125    18.525     6.124
    66   6 C        3.755    -0.131    23.066     6.848
    67   1 H        0.925     0.059     2.213     2.326
    68   1 H        0.925     0.054     2.277     2.360
    69   1 H        0.925     0.052     2.297     2.370
    70   6 C        3.755    -0.130    23.044     6.845
    71   1 H        0.925     0.060     2.194     2.317
    72   1 H        0.925     0.052     2.294     2.368
    73   1 H        0.925     0.053     2.288     2.366
    74   6 C        3.830     0.127    18.499     6.120
    75   8 O        1.637    -0.377    20.416     6.099
    76   6 C        3.755    -0.125    22.962     6.833
    77   1 H        0.925     0.052     2.291     2.367
    78   1 H        0.925     0.056     2.252     2.347
    79   1 H        0.925     0.056     2.251     2.346
    80   6 C        3.755    -0.123    22.916     6.826
    81   1 H        0.925     0.041     2.439     2.442
    82   1 H        0.925     0.051     2.303     2.373
    83   1 H        0.925     0.056     2.246     2.343
    84   1 H        0.926     0.058     2.223     2.332
    85   1 H        0.926     0.055     2.258     2.350
    86   6 C        2.829    -0.022    28.541     8.754
    87   6 C        2.881     0.055    26.755     8.480
    88   6 C        2.926    -0.029    28.718     8.788
    89   7 N        1.933    -0.166    25.383     7.471
    90   1 H        0.925     0.030     2.588     2.516
    91   6 C        2.873     0.048    26.921     8.505
    92   1 H        0.926     0.046     2.366     2.405
    93   7 N        1.930    -0.174    25.557     7.496
    94   1 H        0.925     0.042     2.425     2.435

 Mol. C6AA /au·bohr⁶  :      94787.226147
 Mol. C8AA /au·bohr⁸  :    2531884.431268
 Mol. α(0) /au        :        476.577235


Wiberg/Mayer (AO) data.
largest (>0.10) Wiberg bond orders for each atom

 ---------------------------------------------------------------------------
     #   Z sym  total        # sym  WBO       # sym  WBO       # sym  WBO
 ---------------------------------------------------------------------------
     1   7 N    3.406 --     6 C    1.391     2 C    1.318    19 Ir   0.436
     2   6 C    3.978 --     3 C    1.350     1 N    1.318    10 C    1.088
     3   6 C    3.987 --     4 C    1.482     2 C    1.350     9 H    0.962
                             6 C    0.106
     4   6 C    3.984 --     3 C    1.482     5 C    1.386    84 H    0.968
     5   6 C    3.977 --     6 C    1.458     4 C    1.386     8 H    0.968
     6   6 C    3.978 --     5 C    1.458     1 N    1.391     7 H    0.957
                             3 C    0.106
     7   1 H    0.997 --     6 C    0.957
     8   1 H    0.995 --     5 C    0.968
     9   1 H    0.997 --     3 C    0.962
    10   6 C    3.977 --    15 C    1.357    11 N    1.306     2 C    1.088
    11   7 N    3.402 --    12 C    1.386    10 C    1.306    19 Ir   0.424
    12   6 C    3.973 --    13 C    1.456    11 N    1.386    18 H    0.948
                            15 C    0.105
    13   6 C    3.981 --    12 C    1.456    14 C    1.389    17 H    0.968
    14   6 C    3.981 --    15 C    1.475    13 C    1.389    85 H    0.968
    15   6 C    3.989 --    14 C    1.475    10 C    1.357    16 H    0.962
                            12 C    0.105
    16   1 H    0.997 --    15 C    0.962
    17   1 H    0.996 --    13 C    0.968
    18   1 H    0.994 --    12 C    0.948
    19  77 Ir   5.173 --    63 B    0.860    42 B    0.854    21 B    0.729
                            86 C    0.602    20 H    0.531     1 N    0.436
                            11 N    0.424
    20   1 H    0.991 --    19 Ir   0.531    86 C    0.347
    21   5 B    3.283 --    33 O    1.116    22 O    1.100    19 Ir   0.729
    22   8 O    2.199 --    21 B    1.100    23 C    0.940
    23   6 C    3.942 --    24 C    0.997    28 C    0.991    32 C    0.941
                            22 O    0.940
    24   6 C    3.993 --    23 C    0.997    26 H    0.983    27 H    0.983
                            25 H    0.983
    25   1 H    0.997 --    24 C    0.983
    26   1 H    0.997 --    24 C    0.983
    27   1 H    0.997 --    24 C    0.983
    28   6 C    3.996 --    23 C    0.991    31 H    0.985    30 H    0.984
                            29 H    0.984
    29   1 H    0.997 --    28 C    0.984
    30   1 H    0.998 --    28 C    0.984
    31   1 H    0.999 --    28 C    0.985
    32   6 C    3.938 --    38 C    0.997    34 C    0.991    23 C    0.941
                            33 O    0.936
    33   8 O    2.205 --    21 B    1.116    32 C    0.936
    34   6 C    3.994 --    32 C    0.991    36 H    0.983    37 H    0.982
                            35 H    0.981
    35   1 H    0.997 --    34 C    0.981
    36   1 H    0.997 --    34 C    0.983
    37   1 H    0.997 --    34 C    0.982
    38   6 C    3.994 --    32 C    0.997    41 H    0.983    39 H    0.983
                            40 H    0.983
    39   1 H    0.998 --    38 C    0.983
    40   1 H    0.997 --    38 C    0.983
    41   1 H    0.997 --    38 C    0.983
    42   5 B    3.337 --    43 O    1.120    54 O    1.110    19 Ir   0.854
    43   8 O    2.226 --    42 B    1.120    44 C    0.934
    44   6 C    3.936 --    45 C    0.997    49 C    0.991    53 C    0.939
                            43 O    0.934
    45   6 C    3.992 --    44 C    0.997    48 H    0.983    46 H    0.982
                            47 H    0.982
    46   1 H    0.997 --    45 C    0.982
    47   1 H    0.996 --    45 C    0.982
    48   1 H    0.996 --    45 C    0.983
    49   6 C    3.993 --    44 C    0.991    50 H    0.983    51 H    0.982
                            52 H    0.979
    50   1 H    0.997 --    49 C    0.983
    51   1 H    0.997 --    49 C    0.982
    52   1 H    0.997 --    49 C    0.979
    53   6 C    3.936 --    55 C    0.996    59 C    0.992    44 C    0.939
                            54 O    0.932
    54   8 O    2.228 --    42 B    1.110    53 C    0.932
    55   6 C    3.992 --    53 C    0.996    58 H    0.983    57 H    0.983
                            56 H    0.982
    56   1 H    0.997 --    55 C    0.982
    57   1 H    0.997 --    55 C    0.983
    58   1 H    0.996 --    55 C    0.983
    59   6 C    3.994 --    53 C    0.992    62 H    0.983    60 H    0.983
                            61 H    0.983
    60   1 H    0.998 --    59 C    0.983
    61   1 H    0.996 --    59 C    0.983
    62   1 H    0.997 --    59 C    0.983
    63   5 B    3.365 --    75 O    1.127    64 O    1.112    19 Ir   0.860
    64   8 O    2.228 --    63 B    1.112    65 C    0.936
    65   6 C    3.936 --    70 C    0.997    66 C    0.991    74 C    0.938
                            64 O    0.936
    66   6 C    3.992 --    65 C    0.991    69 H    0.983    68 H    0.983
                            67 H    0.979
    67   1 H    0.997 --    66 C    0.979
    68   1 H    0.997 --    66 C    0.983
    69   1 H    0.996 --    66 C    0.983
    70   6 C    3.992 --    65 C    0.997    72 H    0.983    73 H    0.982
                            71 H    0.982
    71   1 H    0.996 --    70 C    0.982
    72   1 H    0.996 --    70 C    0.983
    73   1 H    0.997 --    70 C    0.982
    74   6 C    3.933 --    76 C    0.996    80 C    0.992    65 C    0.938
                            75 O    0.933
    75   8 O    2.239 --    63 B    1.127    74 C    0.933
    76   6 C    3.992 --    74 C    0.996    77 H    0.983    78 H    0.982
                            79 H    0.982
    77   1 H    0.996 --    76 C    0.983
    78   1 H    0.997 --    76 C    0.982
    79   1 H    0.997 --    76 C    0.982
    80   6 C    3.994 --    74 C    0.992    81 H    0.984    83 H    0.983
                            82 H    0.983
    81   1 H    0.998 --    80 C    0.984
    82   1 H    0.997 --    80 C    0.983
    83   1 H    0.996 --    80 C    0.983
    84   1 H    0.996 --     4 C    0.968
    85   1 H    0.996 --    14 C    0.968
    86   6 C    3.930 --    88 C    1.397    87 C    1.322    19 Ir   0.602
                            20 H    0.347
    87   6 C    3.982 --    89 N    1.490    86 C    1.322    90 H    0.958
    88   6 C    3.987 --    91 C    1.408    86 C    1.397    92 H    0.961
    89   7 N    3.066 --    87 C    1.490    93 N    1.361
    90   1 H    0.999 --    87 C    0.958
    91   6 C    3.979 --    93 N    1.455    88 C    1.408    94 H    0.961
    92   1 H    0.997 --    88 C    0.961
    93   7 N    3.050 --    91 C    1.455    89 N    1.361
    94   1 H    0.996 --    91 C    0.961
 ---------------------------------------------------------------------------

Topologies differ in total number of bonds
Writing topology from bond orders to xtbtopo.mol

molecular dipole:
                 x           y           z       tot (Debye)
 q only:        0.720       0.812      -2.364
   full:        0.012       1.096      -3.170       8.526
molecular quadrupole (traceless):
                xx          xy          yy          xz          yz          zz
 q only:       23.133      -1.806       4.690      13.187      23.060     -27.823
  q+dip:       28.574      -3.213       7.512      21.129      31.333     -36.086
   full:       25.699      -2.729       9.853      19.233      28.525     -35.552


           -------------------------------------------------
          | TOTAL ENERGY             -136.951187788452 Eh   |
          | GRADIENT NORM               0.034870160308 Eh/α |
          | HOMO-LUMO GAP               0.934757409168 eV   |
           -------------------------------------------------

------------------------------------------------------------------------
 * finished run on 2021/10/08 at 07:26:34.139     
------------------------------------------------------------------------
 total:
 * wall-time:     0 d,  0 h,  0 min,  0.130 sec
 *  cpu-time:     0 d,  0 h,  0 min,  0.758 sec
 * ratio c/w:     5.829 speedup
 SCF:
 * wall-time:     0 d,  0 h,  0 min,  0.095 sec
 *  cpu-time:     0 d,  0 h,  0 min,  0.567 sec
 * ratio c/w:     5.972 speedup

