94
 energy: -136.936032063621 gnorm: 0.079992956756 xtb: 6.4.0 (f63f532)
N        -0.96510000000000   -2.11530000000000   -0.24090000000000
C        -2.24700000000000   -1.69840000000000   -0.36220000000000
C        -3.14040000000000   -2.36820000000000   -1.21200000000000
C        -2.70220000000000   -3.47560000000000   -1.93050000000000
C        -1.37780000000000   -3.89880000000000   -1.78760000000000
C        -0.54290000000000   -3.18670000000000   -0.93510000000000
H         0.49810000000000   -3.45630000000000   -0.78940000000000
H        -0.99570000000000   -4.76030000000000   -2.32770000000000
H        -4.16500000000000   -2.02890000000000   -1.31830000000000
C        -2.62130000000000   -0.50950000000000    0.44100000000000
N        -1.62600000000000    0.07330000000000    1.16020000000000
C        -1.89680000000000    1.15240000000000    1.91690000000000
C        -3.17230000000000    1.70330000000000    1.99650000000000
C        -4.20510000000000    1.11740000000000    1.26270000000000
C        -3.92610000000000    0.00250000000000    0.47820000000000
H        -4.71960000000000   -0.46420000000000   -0.09520000000000
H        -3.34630000000000    2.57510000000000    2.62070000000000
H        -1.04450000000000    1.57420000000000    2.43690000000000
Ir        0.42150000000000   -0.81650000000000    0.91330000000000
H         0.87260000000000   -2.23030000000000    1.54050000000000
B         0.50670000000000    0.41560000000000   -0.81540000000000
O         0.19500000000000   -0.04700000000000   -2.09150000000000
C         0.00650000000000    1.10040000000000   -2.95430000000000
C         0.49020000000000    0.74740000000000   -4.35780000000000
H         1.51610000000000    0.37380000000000   -4.33700000000000
H         0.44730000000000    1.62240000000000   -5.01670000000000
H        -0.14740000000000   -0.03390000000000   -4.78430000000000
C        -1.50120000000000    1.39560000000000   -2.96670000000000
H        -1.75370000000000    2.21460000000000   -3.64850000000000
H        -2.03200000000000    0.49450000000000   -3.28930000000000
H        -1.85170000000000    1.65210000000000   -1.96220000000000
C         0.84230000000000    2.20670000000000   -2.22040000000000
O         0.75200000000000    1.78260000000000   -0.83690000000000
C         2.32930000000000    2.18620000000000   -2.59900000000000
H         2.74130000000000    1.18500000000000   -2.45750000000000
H         2.48870000000000    2.51300000000000   -3.63180000000000
H         2.87200000000000    2.86270000000000   -1.93200000000000
C         0.28440000000000    3.62290000000000   -2.33660000000000
H        -0.72650000000000    3.69040000000000   -1.92910000000000
H         0.92130000000000    4.31480000000000   -1.77610000000000
H         0.26430000000000    3.94810000000000   -3.38320000000000
B         1.56300000000000    0.60960000000000    1.84840000000000
O         2.92780000000000    0.55230000000000    2.15020000000000
C         3.36330000000000    1.88660000000000    2.50260000000000
C         4.53140000000000    1.78590000000000    3.47740000000000
H         4.27910000000000    1.16090000000000    4.33690000000000
H         5.39390000000000    1.33790000000000    2.97340000000000
H         4.82390000000000    2.77870000000000    3.83820000000000
C         3.79700000000000    2.56850000000000    1.19670000000000
H         4.20020000000000    3.57090000000000    1.37680000000000
H         4.56740000000000    1.95560000000000    0.72110000000000
H         2.95240000000000    2.63260000000000    0.50540000000000
C         2.05040000000000    2.50090000000000    3.09320000000000
O         1.03750000000000    1.81620000000000    2.31910000000000
C         1.89100000000000    4.00450000000000    2.88650000000000
H         1.87290000000000    4.25440000000000    1.82410000000000
H         0.94940000000000    4.34260000000000    3.33170000000000
H         2.71080000000000    4.55150000000000    3.36630000000000
C         1.82470000000000    2.13200000000000    4.56520000000000
H         1.92610000000000    1.05330000000000    4.71320000000000
H         2.52610000000000    2.65280000000000    5.22540000000000
H         0.80630000000000    2.41580000000000    4.84900000000000
B         2.27820000000000   -1.33090000000000    0.17410000000000
O         2.89460000000000   -2.57740000000000    0.38450000000000
C         4.26930000000000   -2.48200000000000   -0.07210000000000
C         5.10900000000000   -2.05380000000000    1.14010000000000
H         4.76350000000000   -1.08740000000000    1.51750000000000
H         4.98050000000000   -2.79470000000000    1.93590000000000
H         6.17420000000000   -1.99290000000000    0.89300000000000
C         4.71950000000000   -3.84660000000000   -0.58470000000000
H         4.75280000000000   -4.56130000000000    0.24420000000000
H         5.72330000000000   -3.78370000000000   -1.02010000000000
H         4.03500000000000   -4.23600000000000   -1.34170000000000
C         4.16440000000000   -1.36220000000000   -1.16300000000000
O         3.08520000000000   -0.55030000000000   -0.65400000000000
C         5.40720000000000   -0.48870000000000   -1.31550000000000
H         6.27320000000000   -1.09010000000000   -1.61530000000000
H         5.23300000000000    0.26930000000000   -2.08590000000000
H         5.64270000000000    0.02650000000000   -0.38240000000000
C         3.71800000000000   -1.89830000000000   -2.53110000000000
H         2.82530000000000   -2.52160000000000   -2.42740000000000
H         3.46090000000000   -1.05250000000000   -3.17550000000000
H         4.50570000000000   -2.48290000000000   -3.01790000000000
H        -3.38500000000000   -4.00130000000000   -2.59310000000000
H        -5.21400000000000    1.52080000000000    1.29960000000000
C         0.23590000000000   -1.68140000000000    2.96030000000000
C        -0.98738185004453   -2.10731096736410    3.47998115925439
C         1.30754691241203   -1.83531302593063    3.84302535659528
N        -1.15151330480207   -2.60505966574087    4.69959417047109
H        -1.90458958293883   -2.07414471637625    2.90547582988306
C         1.08394013916399   -2.38566010196325    5.09417325487836
H         2.31063021420090   -1.57980097959256    3.52924092676977
N        -0.12042620544821   -2.77209325612323    5.50550933654724
H         1.88982772905706   -2.57511125488108    5.79237701048817
94
 energy: -136.942853281906 gnorm: 0.048885338340 xtb: 6.4.0 (f63f532)
N        -0.96090375497747   -2.09947049410297   -0.25511980401702
C        -2.23875079238860   -1.69001920682737   -0.36596138974483
C        -3.13420496118333   -2.36250531385796   -1.20602553125549
C        -2.70395746629846   -3.46420501834001   -1.92201552749158
C        -1.38456209898627   -3.88325540419056   -1.78349961081408
C        -0.55359554861024   -3.16800569691543   -0.94283396963829
H         0.48033916298837   -3.44766717131667   -0.79382824325900
H        -1.00812932290009   -4.74309272249349   -2.31875266932617
H        -4.15472220431337   -2.02736214002536   -1.30905078818764
C        -2.61029597085883   -0.51240304814656    0.43458653127845
N        -1.61838548302428    0.06904393425695    1.14504842040440
C        -1.89732902058013    1.13874518285659    1.89410401943596
C        -3.16496675838508    1.68637128903089    1.98378303385742
C        -4.19556572606212    1.10189618085148    1.25730531395951
C        -3.91359383929111   -0.00432211542223    0.47622787489381
H        -4.70487828190522   -0.46843776853471   -0.09188205002391
H        -3.33997076046736    2.54891960330428    2.61114615565275
H        -1.05431901234702    1.55831925304614    2.42231726134218
Ir        0.42150000000000   -0.81650000000000    0.91330000000000
H         0.87260000000000   -2.23030000000000    1.54050000000000
B         0.49091311633724    0.42384711591915   -0.79123681027081
O         0.17505519348539   -0.03536503195728   -2.06259409165917
C         0.00984971676205    1.09713149800665   -2.94301146869700
C         0.48902880867937    0.74803396691954   -4.34793328625033
H         1.50809438216043    0.37164393384984   -4.32702770699093
H         0.44383319596476    1.62374427545173   -4.99586095695142
H        -0.14969842640688   -0.02771846628735   -4.76862524007724
C        -1.49428615112155    1.39920723710141   -2.96875885494251
H        -1.73260165802985    2.21226111940161   -3.65265941172175
H        -2.02414848149443    0.50224267765607   -3.28917719757662
H        -1.84100706625610    1.65395740830240   -1.96712121620792
C         0.83159917423350    2.20703300481511   -2.21147564770194
O         0.75570601911263    1.77897051648348   -0.83414531615636
C         2.31405446734894    2.19137865544941   -2.59910064950412
H         2.71889514668058    1.19240291183827   -2.44997897353660
H         2.46504430177431    2.51335360218692   -3.62864450632375
H         2.85619119787688    2.86622685647890   -1.93776478673126
C         0.27964618793089    3.62299463728816   -2.33766057775678
H        -0.72364488463209    3.69182213773987   -1.92544998931648
H         0.91920351878309    4.30674073069580   -1.78110203400224
H         0.26192524818325    3.93566153065903   -3.38172653281664
B         1.56521316557026    0.61633610931132    1.85804617410646
O         2.92458350846588    0.56285850896224    2.14039174670333
C         3.36344190426948    1.88559440795044    2.51046136684648
C         4.53347419806637    1.78828858820028    3.48075224220136
H         4.28213182337682    1.16057487506618    4.33169219320289
H         5.38847341285901    1.34436402312982    2.97262363799654
H         4.81572310128605    2.77876315709325    3.83619485533513
C         3.79833503020779    2.57238824383175    1.21146012123045
H         4.19949072584463    3.56796071365786    1.39591842088746
H         4.56262789004357    1.96140144271623    0.73431154250189
H         2.95007873235805    2.62528833154019    0.53026634336445
C         2.05338323142077    2.50434464500550    3.09054694737678
O         1.04039607609154    1.80739728515239    2.33793707795257
C         1.89362542831069    4.00617432502873    2.88994809586994
H         1.86804803739773    4.24963165853067    1.83165893739407
H         0.95626240105691    4.33486278900272    3.33694856348813
H         2.71404005693295    4.54225275819264    3.36620235040171
C         1.83217627867238    2.13985816116525    4.56278580130505
H         1.93511959258475    1.06417905949234    4.70223766879856
H         2.53302175991305    2.66109485750962    5.21205571641391
H         0.81758311819535    2.41749633983741    4.84793181589937
B         2.27820000000000   -1.33090000000000    0.17410000000000
O         2.90128218283901   -2.56067833921309    0.39282593431641
C         4.26569424572201   -2.48284103965859   -0.07825453910448
C         5.11071290602911   -2.05815332150724    1.12727903951205
H         4.75529541110780   -1.09776853811113    1.49871960569316
H         4.98074574220178   -2.79435484467316    1.91989343036133
H         6.16808247002883   -1.99800899106222    0.87468661610435
C         4.72014905431274   -3.84473895087267   -0.58880241897931
H         4.75064921225056   -4.54970247540826    0.24068303931206
H         5.71767458141600   -3.77252376808119   -1.02127563933602
H         4.03447282038385   -4.23208362970077   -1.33756292843682
C         4.16563843534601   -1.35960455965713   -1.15826163523534
O         3.07270310063454   -0.56350461780652   -0.66161488458174
C         5.40858885636857   -0.49082584796424   -1.31580755466450
H         6.26465928314416   -1.09641925991407   -1.61194374282078
H         5.22999173980047    0.26021129270536   -2.08404316417176
H         5.63690644604007    0.02365017029459   -0.38689700270649
C         3.72855844685738   -1.89833050921459   -2.52643790897139
H         2.83679250962257   -2.51427846095382   -2.41846474499537
H         3.47136557853137   -1.05655042315209   -3.16790849295298
H         4.51892326837062   -2.47481997795958   -3.00414294541736
H        -3.38344135713257   -3.98888766953160   -2.57960821258898
H        -5.19964467753999    1.50228209754207    1.29838822792795
C         0.23590000000000   -1.68140000000001    2.96030000000000
C        -0.99225368931125   -2.10421458185215    3.48309295759958
C         1.30370694276080   -1.82600486735373    3.85233782537367
N        -1.15565561564297   -2.59246396506401    4.70078786198621
H        -1.90828477285856   -2.07569534409844    2.90624217410783
C         1.06785855560203   -2.37018883694779    5.10502288460098
H         2.30717121497244   -1.57002121259477    3.54423011037069
N        -0.13614969245643   -2.75333589327057    5.50556021449884
H         1.86799071843754   -2.55617802204414    5.81016851659570
94
 energy: -136.944865599165 gnorm: 0.038283141457 xtb: 6.4.0 (f63f532)
N        -0.95258124399326   -2.09157346901453   -0.26641776126296
C        -2.22804863026263   -1.68371481163452   -0.37058561661889
C        -3.12945247674416   -2.35545600754781   -1.20375645098224
C        -2.70774777117727   -3.45481136103700   -1.92060384451341
C        -1.38882890691051   -3.87382966136424   -1.78734741181034
C        -0.55720515528446   -3.15803772887756   -0.95263455612605
H         0.47562545564329   -3.44118128112561   -0.81235628681660
H        -1.01836701005853   -4.73366647400245   -2.32020674184801
H        -4.14902335760711   -2.02234303529248   -1.29722517001340
C        -2.59619081641721   -0.51471321869706    0.42712831139339
N        -1.60746979409431    0.06298326904810    1.13813703789727
C        -1.89303614833447    1.12647045037288    1.88313165092787
C        -3.15722159748161    1.67276586514601    1.97746413852218
C        -4.18780993419328    1.08781270499646    1.25225941122128
C        -3.90059500776623   -0.01096498885994    0.46982645100174
H        -4.68934982106099   -0.47769841346777   -0.09490859751513
H        -3.33327245318773    2.52964946461098    2.60661199185673
H        -1.05550510742430    1.55241438514897    2.41179428371062
Ir        0.42150000000000   -0.81650000000000    0.91330000000000
H         0.87260000000000   -2.23030000000000    1.54050000000000
B         0.49421086830554    0.43415606797592   -0.76914745572694
O         0.15486612792363   -0.02520657420503   -2.03204988985640
C         0.00419142454665    1.09546450012884   -2.92218246241017
C         0.48802021497905    0.74216769657942   -4.32476770578081
H         1.50344966199508    0.36248250507117   -4.30535573816758
H         0.44249346631119    1.62137460697251   -4.96224535231047
H        -0.15452485944935   -0.02731895762929   -4.74435786544178
C        -1.49820169640116    1.40659384006006   -2.96687993717057
H        -1.71827331317469    2.21616010193298   -3.65593239061779
H        -2.02725236446252    0.51215850223216   -3.28866082350621
H        -1.84735784255387    1.66419736441354   -1.96917973366012
C         0.82290619863071    2.20750311085274   -2.19707443445636
O         0.75959465858476    1.78244415992466   -0.82441462493495
C         2.30259483410377    2.19792617402050   -2.59555778265886
H         2.70516875665212    1.20071940863412   -2.44031091636490
H         2.43962216294004    2.51321354824315   -3.62583817898539
H         2.84447496889611    2.87726015191803   -1.94236734545811
C         0.26773103540511    3.62175093845670   -2.33107014034440
H        -0.73126788722339    3.69586067326418   -1.91506858685107
H         0.91240559141440    4.30406621893815   -1.78391090119922
H         0.25019916292593    3.91821188989298   -3.37630945126661
B         1.56821076387313    0.62101201336432    1.86861954158127
O         2.92282744665683    0.57077756435394    2.13263141917600
C         3.36239715992595    1.88490911926933    2.51544275610872
C         4.53172627267920    1.78757012875408    3.48723662577914
H         4.28486344078610    1.15545793937219    4.33324644494180
H         5.38411072406963    1.35122680269109    2.97401232972828
H         4.80379720639131    2.77779768031908    3.84043765110024
C         3.80072314546283    2.58121933019440    1.22316619045883
H         4.19819044402713    3.57284337121450    1.41576724166198
H         4.56422650292602    1.97335173455900    0.74559741253810
H         2.95063554643429    2.62841642761389    0.54698291056928
C         2.05442318188362    2.50253314937834    3.09477927138305
O         1.04275231697922    1.79799363517848    2.35579482074392
C         1.89566458655593    4.00393546201008    2.89158271392678
H         1.86190195975128    4.24557835239650    1.83534632009033
H         0.96332043212061    4.32848813660358    3.34504586095507
H         2.71954891347058    4.53153874852353    3.36301133707522
C         1.84385469990489    2.14714832917518    4.57151476573572
H         1.95037172015743    1.07312298503372    4.70629512418243
H         2.54691262216123    2.67267021482633    5.20931111647968
H         0.83110171992628    2.42089148101657    4.85793743360125
B         2.27820000000000   -1.33090000000000    0.17410000000000
O         2.90409594720325   -2.54745926130729    0.40264003977625
C         4.25919137127750   -2.47995155953959   -0.07956019709708
C         5.11658567587907   -2.05952155801439    1.11829493677899
H         4.75644105187823   -1.10239383782990    1.48778121386200
H         4.98883080234723   -2.79509617651922    1.90824318115890
H         6.16790970538496   -1.99986042691360    0.85558369052366
C         4.71200154349372   -3.84114596713959   -0.59420866708930
H         4.74586947060575   -4.54034395039987    0.23612598660639
H         5.70512497467459   -3.75893974017664   -1.02616083096400
H         4.02594994207631   -4.22974506504856   -1.33836700870006
C         4.16017348124853   -1.35846070246583   -1.15731922811294
O         3.05893021613221   -0.57266175661475   -0.66998879753290
C         5.40386301567704   -0.49040244377107   -1.31083702565099
H         6.25217825744505   -1.10296247290216   -1.60194715641056
H         5.22602389172730    0.25392695663542   -2.08173789681566
H         5.62922118806749    0.02614136210356   -0.38515118262989
C         3.73791530216358   -1.90003468767635   -2.52952040111314
H         2.84750346588268   -2.51374069853214   -2.42133085174389
H         3.48415866866335   -1.05973863998154   -3.17073821883844
H         4.53489652404440   -2.47133385607398   -2.99459171582656
H        -3.38954022697444   -3.98018784597561   -2.57058425230484
H        -5.19109925703644    1.48196249717244    1.29869763190671
C         0.23590000000000   -1.68140000000002    2.96029999999999
C        -0.99974524984312   -2.09735838411346    3.48034100225764
C         1.29484827550173   -1.81182469336415    3.86706864522344
N        -1.17043361086072   -2.56934841184055    4.70068122289262
H        -1.91104657631755   -2.07362093078559    2.89547401653893
C         1.04297388662741   -2.34109866198918    5.12464236558365
H         2.29987382686105   -1.55494521651986    3.56765277035368
N        -0.16420865483342   -2.71968780820641    5.51304148197940
H         1.83493397765460   -2.51537558590584    5.84213875779901
94
 energy: -136.945804623124 gnorm: 0.037362598451 xtb: 6.4.0 (f63f532)
N        -0.94232309178090   -2.08763803634932   -0.27989111088658
C        -2.21873336159125   -1.68061120632041   -0.37672607996380
C        -3.12625270560687   -2.35277798922098   -1.20398842226076
C        -2.71097679728371   -3.45244338673675   -1.92244022415836
C        -1.38988599807683   -3.87077534052807   -1.79742735532960
C        -0.55323898589810   -3.15305744513022   -0.96913268263574
H         0.47983336086738   -3.43972258701714   -0.83585996365796
H        -1.02410830980481   -4.73162727295164   -2.33055061896896
H        -4.14599306065206   -2.01883270974021   -1.28968052173653
C        -2.58488802760860   -0.51594112013541    0.42157212425304
N        -1.59680890750822    0.06203118058788    1.13342580263191
C        -1.88630747710361    1.12385762504911    1.87773037244204
C        -3.15160519634943    1.66592757015797    1.97632868966125
C        -4.18284070806064    1.07821052844496    1.25175553111404
C        -3.89127498966232   -0.01591832681464    0.46610115680174
H        -4.67751785898053   -0.48416879934981   -0.10028859494253
H        -3.32948501792787    2.51925389086787    2.60841232176533
H        -1.05235278239461    1.55306120921642    2.40980626641278
Ir        0.42150000000000   -0.81650000000000    0.91330000000000
H         0.87260000000000   -2.23030000000000    1.54050000000000
B         0.47987496791539    0.44921443876906   -0.74823293957271
O         0.13162866295036   -0.01529087190387   -2.00616181728849
C        -0.00600884545938    1.09704202321019   -2.90293083287259
C         0.48498195522719    0.73437704008507   -4.30146156358076
H         1.49787946862386    0.34905808371455   -4.27649238133685
H         0.44607525187018    1.61395125115182   -4.93796891442104
H        -0.16068746773992   -0.03191406548669   -4.72134656187886
C        -1.50719685859819    1.41628919270249   -2.96412689416963
H        -1.71216797352230    2.22400785842576   -3.65913983945561
H        -2.03688060104386    0.52342977413663   -3.28819330536432
H        -1.86462041625998    1.67965204339711   -1.97115874972743
C         0.81336286910860    2.21127741020162   -2.18187533910611
O         0.76018111289479    1.79177991064224   -0.81050788326742
C         2.29117680433186    2.20458376584996   -2.59062906817612
H         2.69645256650474    1.20952107876342   -2.42986735744812
H         2.41779838557258    2.51251459543049   -3.62390536615654
H         2.83408943958530    2.89105404022550   -1.94623857016837
C         0.25583762096744    3.62489609244316   -2.32194722692340
H        -0.74059685131961    3.70206703913436   -1.90108485140675
H         0.90430289784803    4.31117614368587   -1.78472401888523
H         0.23296792741738    3.90927189035342   -3.37001253482099
B         1.56978379097785    0.62231772335394    1.87660488195143
O         2.92386944299756    0.57491558074309    2.12533021020361
C         3.36257030407540    1.88407844241973    2.51948663913910
C         4.53195694053606    1.78468757064880    3.49252788265946
H         4.28813466130850    1.14664267214112    4.33463305681456
H         5.38628862225579    1.35625457035460    2.97639110205396
H         4.79655472740935    2.77490483591936    3.85014897789895
C         3.80349695068581    2.59096672465138    1.23296940289909
H         4.19687755558643    3.58172985732108    1.43454867727410
H         4.57011717266956    1.98815019603538    0.75442413582155
H         2.95428429296806    2.63854127797038    0.55626354765582
C         2.05546170978141    2.50001247984357    3.10222247052278
O         1.04223553372719    1.78926044479743    2.37489161978326
C         1.89446610077763    4.00149058765252    2.89510486104712
H         1.85167349528832    4.24063307361850    1.83876397897145
H         0.96658273371959    4.32694385734396    3.35643290158178
H         2.72362148123839    4.52717690374831    3.35835801892791
C         1.85608631131067    2.15317401060017    4.58357788050894
H         1.96708934916967    1.08035772483267    4.72177899179028
H         2.56267200411401    2.68525289040891    5.21109115923847
H         0.84459868389445    2.42536380396173    4.87452219749797
B         2.27820000000001   -1.33090000000001    0.17410000000001
O         2.90687988987335   -2.53973375514313    0.41308980074860
C         4.25501628268952   -2.47783565747549   -0.08015044374685
C         5.12410437017179   -2.05973969682201    1.11115929552442
H         4.76535731448418   -1.10352028373393    1.48355125938518
H         5.00183582178526   -2.79656773393990    1.90030549262251
H         6.17212418760890   -2.00024302912417    0.83818550924769
C         4.70323229107257   -3.84047756850238   -0.59765132256412
H         4.74180869718054   -4.53845896221927    0.23305659836097
H         5.69347622387882   -3.75465412064719   -1.03418916887276
H         4.01361893223400   -4.22921968316153   -1.33805886255744
C         4.15532297373386   -1.35752608017176   -1.15884155427519
O         3.04774409576338   -0.57769581090574   -0.68031647469510
C         5.39847159206709   -0.48685174863501   -1.30726056369728
H         6.24622237073528   -1.10281793557807   -1.59125808417637
H         5.22401447352119    0.25357861678082   -2.08222170028017
H         5.61887304457452    0.03276410693534   -0.38245312740471
C         3.74639447135710   -1.90221012399897   -2.53483047995356
H         2.85685316709572   -2.51747921630178   -2.43255883782071
H         3.49750478269494   -1.06290243658991   -3.17885065792911
H         4.55031304792185   -2.47123168844071   -2.98927669355649
H        -3.39710377687877   -3.97799491248622   -2.56714507428142
H        -5.18755998523203    1.46700318625329    1.30178702438283
C         0.23590000000000   -1.68140000000003    2.96029999999998
C        -1.00746352910021   -2.08888336524911    3.47217602256644
C         1.28323073173138   -1.79621089727185    3.88304116723431
N        -1.19223025312635   -2.54079378726765    4.69819899032411
H        -1.91124749199406   -2.07234041653006    2.87522765011441
C         1.01447345276492   -2.30334498381099    5.14749317135661
H         2.29110151831622   -1.54006776483933    3.59332972736923
N        -0.19791428167102   -2.67593521100706    5.52565314886489
H         1.79696591751165   -2.46118481452450    5.87975554421994
94
 energy: -136.946883892249 gnorm: 0.037137210998 xtb: 6.4.0 (f63f532)
N        -0.93009600305194   -2.08717708373443   -0.29468036500561
C        -2.20823591822151   -1.67988764328007   -0.38389975289443
C        -3.12176112689966   -2.35211320844862   -1.20620409459378
C        -2.71305884869665   -3.45227254180476   -1.92725575992332
C        -1.38904363728127   -3.86917958898190   -1.81315101882864
C        -0.54586190591813   -3.15045667656862   -0.99086452132726
H         0.48937333926791   -3.43739698312649   -0.87009050916958
H        -1.02789663143898   -4.73032390633342   -2.34940728802027
H        -4.14221292182575   -2.01706709404930   -1.28281763193920
C        -2.57253473648081   -0.51832404780899    0.41654134633991
N        -1.58509413555414    0.05824520868928    1.13334778077949
C        -1.87775353828548    1.12087306745527    1.87712766905835
C        -3.14463425367650    1.65936707141700    1.97725008582822
C        -4.17618862053028    1.06964696308926    1.25171911261529
C        -3.88016766512838   -0.01925544848568    0.46104230110723
H        -4.66358932829998   -0.48811077951894   -0.10928235925659
H        -3.32441361466234    2.51013538364973    2.61227088365198
H        -1.04630253159101    1.55527090414733    2.41002347554725
Ir        0.42150000000000   -0.81650000000001    0.91330000000000
H         0.87260000000000   -2.23030000000000    1.54050000000000
B         0.47800366194580    0.46695162500391   -0.72405367836297
O         0.10025444833417   -0.00035843906936   -1.97286036663583
C        -0.02375641537351    1.10260590216393   -2.87643678645354
C         0.47718370117651    0.72252402257983   -4.26804365174576
H         1.48600057524109    0.32627774200882   -4.22945028430615
H         0.45349179192987    1.59831603652707   -4.91117887772507
H        -0.17274097957733   -0.04086655756098   -4.68754296390112
C        -1.52294581028293    1.43317706253088   -2.95889120645456
H        -1.71033552039321    2.23828459160560   -3.66230290441538
H        -2.05470099198764    0.54227110146918   -3.28571869778858
H        -1.89422116494284    1.70615585504194   -1.97314797832753
C         0.80017658127018    2.22042316055443   -2.16243544794164
O         0.76174175946122    1.80629024076704   -0.79175005941141
C         2.27574223233923    2.21757576150911   -2.58345598213208
H         2.68770784822665    1.22631040097366   -2.41396904495549
H         2.39038598910675    2.51362139929328   -3.62177522350329
H         2.81993106494552    2.91573775094321   -1.95208075691690
C         0.23669884349806    3.63236225545344   -2.30735839915588
H        -0.75580522696096    3.71144379238118   -1.87658568783718
H         0.88975784523128    4.32664326939254   -1.78504765628573
H         0.20114727572674    3.90453205212940   -3.35880084090447
B         1.57136751119913    0.62293220000812    1.88471475733645
O         2.92718747449837    0.58098765005994    2.11454218553611
C         3.36429154095613    1.88496343557723    2.52408106129256
C         4.53370275753355    1.77957338004327    3.49834766641851
H         4.29348305749235    1.13079842939353    4.33387790589057
H         5.39261964317184    1.36325435676737    2.97883713950414
H         4.79017495286819    2.76837001666437    3.86760090277868
C         3.80859926362046    2.60694497239482    1.24573769079600
H         4.19537027525509    3.59800368522718    1.46016101629239
H         4.58203035507436    2.01314483743979    0.76591667085171
H         2.96271195246598    2.65743725042971    0.56482883498742
C         2.05772557316033    2.49666229225795    3.11563606701684
O         1.04090948974972    1.77764114821632    2.40355351919370
C         1.89056412087012    3.99761900213308    2.90060859848631
H         1.83202790271824    4.23112982299262    1.84311730846093
H         0.96941124110102    4.32606513052219    3.37455245591122
H         2.72723870713838    4.52639000678027    3.34825348128086
C         1.87474748233953    2.16275967595366    4.60330415345207
H         1.99219293936394    1.09185689851480    4.75185653416299
H         2.58621010707636    2.70537007451339    5.21697862583415
H         0.86503846318672    2.43393810882484    4.90208017108375
B         2.27820000000001   -1.33090000000001    0.17410000000001
O         2.91281591952601   -2.53101752985714    0.42785909169671
C         4.25292170677946   -2.47572459084933   -0.08008210746898
C         5.13813702245596   -2.06058439209204    1.10205831705725