      -----------------------------------------------------------      
     |                   =====================                   |     
     |                           x T B                           |     
     |                   =====================                   |     
     |                         S. Grimme                         |     
     |          Mulliken Center for Theoretical Chemistry        |     
     |                    University of Bonn                     |     
      -----------------------------------------------------------      

   * xtb version 6.4.0 (f63f532) compiled by 'knkr256@seskscpg008.prim.scp' on 2021-04-09

   xtb is free software: you can redistribute it and/or modify it under
   the terms of the GNU Lesser General Public License as published by
   the Free Software Foundation, either version 3 of the License, or
   (at your option) any later version.
   
   xtb is distributed in the hope that it will be useful,
   but WITHOUT ANY WARRANTY; without even the implied warranty of
   MERCHANTABILITY or FITNESS FOR A PARTICULAR PURPOSE.  See the
   GNU Lesser General Public License for more details.
   
   Cite this work as:
   * C. Bannwarth, E. Caldeweyher, S. Ehlert, A. Hansen, P. Pracht,
     J. Seibert, S. Spicher, S. Grimme, WIREs Comput. Mol. Sci., 2020, 11,
     e01493. DOI: 10.1002/wcms.1493
   
   for GFN2-xTB:
   * C. Bannwarth, S. Ehlert and S. Grimme., J. Chem. Theory Comput., 2019,
     15, 1652-1671. DOI: 10.1021/acs.jctc.8b01176
   for GFN1-xTB:
   * S. Grimme, C. Bannwarth, P. Shushkov, J. Chem. Theory Comput., 2017,
     13, 1989-2009. DOI: 10.1021/acs.jctc.7b00118
   for GFN0-xTB:
   * P. Pracht, E. Caldeweyher, S. Ehlert, S. Grimme, ChemRxiv, 2019, preprint.
     DOI: 10.26434/chemrxiv.8326202.v1
   for GFN-FF:
   * S. Spicher and S. Grimme, Angew. Chem. Int. Ed., 2020, 59, 15665-15673.
     DOI: 10.1002/anie.202004239
   
   for DFT-D4:
   * E. Caldeweyher, C. Bannwarth and S. Grimme, J. Chem. Phys., 2017,
     147, 034112. DOI: 10.1063/1.4993215
   * E. Caldeweyher, S. Ehlert, A. Hansen, H. Neugebauer, S. Spicher,
     C. Bannwarth and S. Grimme, J. Chem. Phys., 2019, 150, 154122.
     DOI: 10.1063/1.5090222
   * E. Caldeweyher, J.-M. Mewes, S. Ehlert and S. Grimme, Phys. Chem. Chem. Phys.
     2020, 22, 8499-8512. DOI: 10.1039/D0CP00502A
   
   for sTDA-xTB:
   * S. Grimme and C. Bannwarth, J. Chem. Phys., 2016, 145, 054103.
     DOI: 10.1063/1.4959605
   
   in the mass-spec context:
   * V. Asgeirsson, C. Bauer and S. Grimme, Chem. Sci., 2017, 8, 4879.
     DOI: 10.1039/c7sc00601b
   * J. Koopman and S. Grimme, ACS Omega 2019, 4, 12, 15120-15133.
     DOI: 10.1021/acsomega.9b02011
   
   for metadynamics refer to:
   * S. Grimme, J. Chem. Theory Comput., 2019, 155, 2847-2862
     DOI: 10.1021/acs.jctc.9b00143
   
   for SPH calculations refer to:
   * S. Spicher and S. Grimme, J. Chem. Theory Comput., 2021, 17, 1701-1714
     DOI: 10.1021/acs.jctc.0c01306
   
   with help from (in alphabetical order)
   P. Atkinson, C. Bannwarth, F. Bohle, G. Brandenburg, E. Caldeweyher
   M. Checinski, S. Dohm, S. Ehlert, S. Ehrlich, I. Gerasimov, J. Koopman
   C. Lavinge, S. Lehtola, F. März, M. Müller, F. Musil, H. Neugebauer
   J. Pisarek, P. Pracht, J. Seibert, P. Shushkov, S. Spicher, M. Stahn
   T. Strunk, J. Stückrath, T. Rose, and J. Unsleber
   
 * started run on 2021/10/08 at 07:27:52.869     

           -------------------------------------------------
          |                Calculation Setup                |
           -------------------------------------------------

          program call               : xtb xtbopt.xyz --sp --alpb thf -P 6
          hostname                   : seskscpg010.prim.scp
          coordinate file            : xtbopt.xyz
          omp threads                :                     6
          number of atoms            :                    96
          number of electrons        :                   256
          charge                     :                     0
          spin                       :                   0.0
          first test random number   :      0.76711571179555

   ID    Z sym.   atoms
    1    7 N      1, 11
    2    6 C      2-6, 10, 12-15, 23, 24, 28, 32, 34, 38, 44, 45, 49, 53, 55,
                  59, 65, 66, 70, 74, 76, 80, 86-89, 91, 93
    3    1 H      7-9, 16-18, 20, 25-27, 29-31, 35-37, 39-41, 46-48, 50-52,
                  56-58, 60-62, 67-69, 71-73, 77-79, 81-85, 90, 92, 94, 96
    4   77 Ir     19
    5    5 B      21, 42, 63
    6    8 O      22, 33, 43, 54, 64, 75
    7   17 Cl     95

molecular fragmentation (1/2 indicates fragments):
111111111111111111111111111111111111111111111111111111111111111111111111
111111111111122222222222
# atoms in fragment 1/2:    85    11
 fragment masses (1/2) :      730.32      111.55
CMA distance (Bohr)    :   9.579
constraining FC (au)   :  0.0500

           -------------------------------------------------
          |                 G F N 2 - x T B                 |
           -------------------------------------------------

        Reference                      10.1021/acs.jctc.8b01176
      * Hamiltonian:
        H0-scaling (s, p, d)           1.850000    2.230000    2.230000
        zeta-weighting                 0.500000
      * Dispersion:
        s8                             2.700000
        a1                             0.520000
        a2                             5.000000
        s9                             5.000000
      * Repulsion:
        kExp                           1.500000    1.000000
        rExp                           1.000000
      * Coulomb:
        alpha                          2.000000
        third order                    shell-resolved
        anisotropic                    true
        a3                             3.000000
        a5                             4.000000
        cn-shift                       1.200000
        cn-exp                         4.000000
        max-rad                        5.000000

      * Solvation model:               ALPB
        Solvent                        thf
        Parameter file                 internal GFN2-xTB/ALPB
        Dielectric constant                7.6000E+00
        Reference state                gsolv [1 M gas/solution]
        Free energy shift                  5.3248E-03 Eh       3.3414E+00 kcal/mol
        Temperature                        2.9815E+02 K
        Density                            8.8300E-01 kg/L
        Solvent mass                       7.2106E+01 g/mol
        Interaction kernel             P16
        Born radius scaling (c1)           1.7311E+00
        Born radii integrator          GBOBC
        Born offset                        0.0000E+00 a0       0.0000E+00 AA
        H-bond correction              true
        Ion screening                  false
        Surface tension                    1.0000E-05 Eh       1.5569E+01 dyn/cm
        Grid points                               230 per atom
q/qsh data taken from xtbrestart
CAMM data taken from xtbrestart

          ...................................................
          :                      SETUP                      :
          :.................................................:
          :  # basis functions                 249          :
          :  # atomic orbitals                 247          :
          :  # shells                          145          :
          :  # electrons                       256          :
          :  max. iterations                   250          :
          :  Hamiltonian                  GFN2-xTB          :
          :  restarted?                       true          :
          :  GBSA solvation                   true          :
          :  PC potential                    false          :
          :  electronic temp.          300.0000000     K    :
          :  accuracy                    1.0000000          :
          :  -> integral cutoff          0.2500000E+02      :
          :  -> integral neglect         0.1000000E-07      :
          :  -> SCF convergence          0.1000000E-05 Eh   :
          :  -> wf. convergence          0.1000000E-03 e    :
          :  Broyden damping             0.4000000          :
          ...................................................

 iter      E             dE          RMSdq      gap      omega  full diag
   1   -142.2596251 -0.142260E+03  0.192E-05    0.90       0.0  T
   2   -142.2596251  0.451905E-11  0.188E-05    0.90     543.1  T
   3   -142.2596251 -0.542855E-11  0.156E-05    0.90     654.1  T

   *** convergence criteria satisfied after 3 iterations ***

         #    Occupation            Energy/Eh            Energy/eV
      -------------------------------------------------------------
         1        2.0000           -1.0462738             -28.4706
       ...           ...                  ...                  ...
       122        2.0000           -0.3823115             -10.4032
       123        2.0000           -0.3490871              -9.4991
       124        2.0000           -0.3326217              -9.0511
       125        2.0000           -0.3238765              -8.8131
       126        2.0000           -0.3203755              -8.7179
       127        2.0000           -0.3123319              -8.4990
       128        2.0000           -0.3101942              -8.4408 (HOMO)
       129                         -0.2771480              -7.5416 (LUMO)
       130                         -0.2489740              -6.7749
       131                         -0.2465408              -6.7087
       132                         -0.2207287              -6.0063
       133                         -0.2183035              -5.9403
       ...                                ...                  ...
       247                          3.7820615             102.9151
      -------------------------------------------------------------
                  HL-Gap            0.0330462 Eh            0.8992 eV
             Fermi-level           -0.2936235 Eh           -7.9899 eV

 SCC (total)                   0 d,  0 h,  0 min,  0.102 sec
 SCC setup                      ...        0 min,  0.003 sec (  2.602%)
 Dispersion                     ...        0 min,  0.002 sec (  1.896%)
 classical contributions        ...        0 min,  0.000 sec (  0.141%)
 integral evaluation            ...        0 min,  0.028 sec ( 27.025%)
 iterations                     ...        0 min,  0.031 sec ( 29.924%)
 molecular gradient             ...        0 min,  0.039 sec ( 37.783%)
 printout                       ...        0 min,  0.001 sec (  0.574%)

         :::::::::::::::::::::::::::::::::::::::::::::::::::::
         ::                     SUMMARY                     ::
         :::::::::::::::::::::::::::::::::::::::::::::::::::::
         :: total energy            -140.482846804769 Eh    ::
         :: total w/o Gsasa/hb      -140.443571590972 Eh    ::
         :: gradient norm              0.034028842580 Eh/a0 ::
         :: HOMO-LUMO gap              0.899232985116 eV    ::
         ::.................................................::
         :: SCC energy              -142.259625062556 Eh    ::
         :: -> isotropic ES            0.236147746604 Eh    ::
         :: -> anisotropic ES          0.011654562625 Eh    ::
         :: -> anisotropic XC          0.046513464420 Eh    ::
         :: -> dispersion             -0.134742326437 Eh    ::
         :: -> Gsolv                  -0.048513845287 Eh    ::
         ::    -> Gelec               -0.009238631490 Eh    ::
         ::    -> Gsasa               -0.042139080936 Eh    ::
         ::    -> Ghb                 -0.002460948306 Eh    ::
         ::    -> Gshift               0.005324815444 Eh    ::
         :: repulsion energy           1.768746727201 Eh    ::
         :: add. restraining           0.000000000000 Eh    ::
         :: total charge               0.000000000005 e     ::
         :::::::::::::::::::::::::::::::::::::::::::::::::::::

           -------------------------------------------------
          |                Property Printout                |
           -------------------------------------------------

    * Orbital Energies and Occupations

         #    Occupation            Energy/Eh            Energy/eV
      -------------------------------------------------------------
         1        2.0000           -1.0462738             -28.4706
       ...           ...                  ...                  ...
       116        2.0000           -0.4022664             -10.9462
       117        2.0000           -0.3912189             -10.6456
       118        2.0000           -0.3889418             -10.5836
       119        2.0000           -0.3863217             -10.5123
       120        2.0000           -0.3842020             -10.4547
       121        2.0000           -0.3830993             -10.4247
       122        2.0000           -0.3823115             -10.4032
       123        2.0000           -0.3490871              -9.4991
       124        2.0000           -0.3326217              -9.0511
       125        2.0000           -0.3238765              -8.8131
       126        2.0000           -0.3203755              -8.7179
       127        2.0000           -0.3123319              -8.4990
       128        2.0000           -0.3101942              -8.4408 (HOMO)
       129                         -0.2771480              -7.5416 (LUMO)
       130                         -0.2489740              -6.7749
       131                         -0.2465408              -6.7087
       132                         -0.2207287              -6.0063
       133                         -0.2183035              -5.9403
       134                         -0.2054050              -5.5894
       135                         -0.1884104              -5.1269
       136                         -0.1528922              -4.1604
       137                         -0.1301219              -3.5408
       138                         -0.1266041              -3.4451
       139                         -0.1234363              -3.3589
       ...                                ...                  ...
       247                          3.7820615             102.9151
      -------------------------------------------------------------
                  HL-Gap            0.0330462 Eh            0.8992 eV
             Fermi-level           -0.2936235 Eh           -7.9899 eV

     #   Z          covCN         q      C6AA      α(0)
     1   7 N        2.549    -0.119    23.626     7.219
     2   6 C        2.954     0.077    26.282     8.409
     3   6 C        2.918    -0.043    29.063     8.840
     4   6 C        2.924    -0.022    28.551     8.763
     5   6 C        2.915    -0.043    29.071     8.841
     6   6 C        2.892     0.048    26.927     8.508
     7   1 H        0.926     0.054     2.265     2.354
     8   1 H        0.926     0.057     2.233     2.337
     9   1 H        0.926     0.049     2.337     2.390
    10   6 C        2.953     0.073    26.369     8.422
    11   7 N        2.554    -0.126    23.757     7.239
    12   6 C        2.890     0.042    27.064     8.529
    13   6 C        2.915    -0.044    29.099     8.846
    14   6 C        2.922    -0.024    28.608     8.771
    15   6 C        2.918    -0.045    29.119     8.849
    16   1 H        0.926     0.048     2.348     2.396
    17   1 H        0.926     0.053     2.288     2.366
    18   1 H        0.926     0.077     2.011     2.217
    19  77 Ir       5.940    -0.154   387.944    36.423
    20   1 H        0.977     0.095     1.828     2.113
    21   5 B        2.631     0.402    16.029     6.763
    22   8 O        1.638    -0.406    20.975     6.182
    23   6 C        3.836     0.130    18.456     6.112
    24   6 C        3.755    -0.122    22.894     6.822
    25   1 H        0.925     0.054     2.274     2.358
    26   1 H        0.925     0.045     2.382     2.414
    27   1 H        0.925     0.052     2.298     2.371
    28   6 C        3.754    -0.110    22.666     6.789
    29   1 H        0.925     0.048     2.346     2.395
    30   1 H        0.925     0.043     2.413     2.429
    31   1 H        0.925     0.028     2.609     2.526
    32   6 C        3.841     0.130    18.440     6.109
    33   8 O        1.637    -0.402    20.903     6.171
    34   6 C        3.755    -0.121    22.882     6.821
    35   1 H        0.925     0.052     2.299     2.371
    36   1 H        0.925     0.046     2.368     2.407
    37   1 H        0.925     0.049     2.329     2.386
    38   6 C        3.754    -0.120    22.862     6.818
    39   1 H        0.925     0.047     2.353     2.399
    40   1 H        0.925     0.053     2.283     2.363
    41   1 H        0.925     0.046     2.377     2.411
    42   5 B        2.626     0.401    16.062     6.775
    43   8 O        1.637    -0.384    20.557     6.120
    44   6 C        3.837     0.129    18.464     6.113
    45   6 C        3.754    -0.124    22.931     6.828
    46   1 H        0.925     0.053     2.281     2.362
    47   1 H        0.925     0.055     2.256     2.349
    48   1 H        0.925     0.049     2.338     2.391
    49   6 C        3.755    -0.122    22.889     6.822
    50   1 H        0.925     0.048     2.341     2.392
    51   1 H        0.925     0.046     2.372     2.408
    52   1 H        0.925     0.053     2.280     2.361
    53   6 C        3.833     0.128    18.488     6.118
    54   8 O        1.637    -0.381    20.501     6.112
    55   6 C        3.755    -0.124    22.941     6.830
    56   1 H        0.925     0.055     2.261     2.352
    57   1 H        0.925     0.054     2.265     2.354
    58   1 H        0.925     0.048     2.348     2.396
    59   6 C        3.755    -0.119    22.845     6.815
    60   1 H        0.925     0.042     2.419     2.432
    61   1 H        0.925     0.051     2.313     2.378
    62   1 H        0.925     0.049     2.330     2.387
    63   5 B        2.626     0.401    16.068     6.776
    64   8 O        1.637    -0.379    20.453     6.105
    65   6 C        3.832     0.125    18.527     6.124
    66   6 C        3.755    -0.129    23.043     6.845
    67   1 H        0.925     0.058     2.220     2.330
    68   1 H        0.925     0.053     2.284     2.364
    69   1 H        0.925     0.050     2.324     2.384
    70   6 C        3.755    -0.129    23.035     6.843
    71   1 H        0.925     0.060     2.199     2.319
    72   1 H        0.925     0.050     2.314     2.379
    73   1 H        0.925     0.052     2.290     2.366
    74   6 C        3.829     0.127    18.501     6.120
    75   8 O        1.637    -0.378    20.439     6.103
    76   6 C        3.755    -0.124    22.938     6.829
    77   1 H        0.925     0.051     2.312     2.378
    78   1 H        0.925     0.054     2.270     2.356
    79   1 H        0.925     0.055     2.263     2.353
    80   6 C        3.755    -0.123    22.907     6.825
    81   1 H        0.925     0.041     2.432     2.439
    82   1 H        0.925     0.050     2.320     2.382
    83   1 H        0.925     0.055     2.263     2.352
    84   1 H        0.926     0.054     2.269     2.355
    85   1 H        0.926     0.051     2.306     2.375
    86   6 C        2.832    -0.021    28.522     8.752
    87   6 C        2.923    -0.034    28.845     8.808
    88   6 C        2.955    -0.046    29.136     8.853
    89   6 C        2.922    -0.037    28.930     8.820
    90   1 H        0.926     0.037     2.485     2.465
    91   6 C        2.889     0.093    25.936     8.350
    92   1 H        0.926     0.057     2.235     2.338
    93   6 C        2.952    -0.053    29.317     8.881
    94   1 H        0.926     0.046     2.373     2.409
    95  17 Cl       0.964    -0.219   106.089    15.758
    96   1 H        0.926     0.053     2.284     2.363

 Mol. C6AA /au·bohr⁶  :     102801.538926
 Mol. C8AA /au·bohr⁸  :    2804944.720322
 Mol. α(0) /au        :        497.839460


Wiberg/Mayer (AO) data.
largest (>0.10) Wiberg bond orders for each atom

 ---------------------------------------------------------------------------
     #   Z sym  total        # sym  WBO       # sym  WBO       # sym  WBO
 ---------------------------------------------------------------------------
     1   7 N    3.405 --     6 C    1.389     2 C    1.313    19 Ir   0.442
     2   6 C    3.979 --     3 C    1.350     1 N    1.313    10 C    1.090
     3   6 C    3.988 --     4 C    1.482     2 C    1.350     9 H    0.962
                             6 C    0.106
     4   6 C    3.985 --     3 C    1.482     5 C    1.384    84 H    0.969
     5   6 C    3.979 --     6 C    1.459     4 C    1.384     8 H    0.968
     6   6 C    3.978 --     5 C    1.459     1 N    1.389     7 H    0.957
                             3 C    0.106
     7   1 H    0.997 --     6 C    0.957
     8   1 H    0.996 --     5 C    0.968
     9   1 H    0.997 --     3 C    0.962
    10   6 C    3.979 --    15 C    1.355    11 N    1.305     2 C    1.090
    11   7 N    3.405 --    12 C    1.388    10 C    1.305    19 Ir   0.430
    12   6 C    3.973 --    13 C    1.456    11 N    1.388    18 H    0.948
                            15 C    0.105
    13   6 C    3.982 --    12 C    1.456    14 C    1.387    17 H    0.969
    14   6 C    3.983 --    15 C    1.477    13 C    1.387    85 H    0.969
    15   6 C    3.989 --    14 C    1.477    10 C    1.355    16 H    0.961
                            12 C    0.105
    16   1 H    0.997 --    15 C    0.961
    17   1 H    0.996 --    13 C    0.969
    18   1 H    0.994 --    12 C    0.948
    19  77 Ir   5.167 --    63 B    0.864    42 B    0.857    21 B    0.733
                            86 C    0.583    20 H    0.530     1 N    0.442
                            11 N    0.430
    20   1 H    0.989 --    19 Ir   0.530    86 C    0.352
    21   5 B    3.276 --    33 O    1.112    22 O    1.093    19 Ir   0.733
    22   8 O    2.194 --    21 B    1.093    23 C    0.942
    23   6 C    3.943 --    24 C    0.997    28 C    0.990    22 O    0.942
                            32 C    0.941
    24   6 C    3.994 --    23 C    0.997    26 H    0.984    27 H    0.983
                            25 H    0.983
    25   1 H    0.997 --    24 C    0.983
    26   1 H    0.997 --    24 C    0.984
    27   1 H    0.997 --    24 C    0.983
    28   6 C    3.996 --    23 C    0.990    31 H    0.985    29 H    0.984
                            30 H    0.984
    29   1 H    0.997 --    28 C    0.984
    30   1 H    0.998 --    28 C    0.984
    31   1 H    0.999 --    28 C    0.985
    32   6 C    3.940 --    38 C    0.997    34 C    0.991    23 C    0.941
                            33 O    0.939
    33   8 O    2.202 --    21 B    1.112    32 C    0.939
    34   6 C    3.994 --    32 C    0.991    36 H    0.984    37 H    0.982
                            35 H    0.981
    35   1 H    0.997 --    34 C    0.981
    36   1 H    0.997 --    34 C    0.984
    37   1 H    0.997 --    34 C    0.982
    38   6 C    3.994 --    32 C    0.997    41 H    0.984    39 H    0.983
                            40 H    0.983
    39   1 H    0.998 --    38 C    0.983
    40   1 H    0.997 --    38 C    0.983
    41   1 H    0.997 --    38 C    0.984
    42   5 B    3.333 --    43 O    1.116    54 O    1.110    19 Ir   0.857
    43   8 O    2.224 --    42 B    1.116    44 C    0.936
    44   6 C    3.937 --    45 C    0.997    49 C    0.991    53 C    0.939
                            43 O    0.936
    45   6 C    3.993 --    44 C    0.997    48 H    0.983    46 H    0.982
                            47 H    0.982
    46   1 H    0.997 --    45 C    0.982
    47   1 H    0.997 --    45 C    0.982
    48   1 H    0.997 --    45 C    0.983
    49   6 C    3.994 --    44 C    0.991    50 H    0.983    51 H    0.982
                            52 H    0.980
    50   1 H    0.997 --    49 C    0.983
    51   1 H    0.998 --    49 C    0.982
    52   1 H    0.997 --    49 C    0.980
    53   6 C    3.938 --    55 C    0.996    59 C    0.992    44 C    0.939
                            54 O    0.935
    54   8 O    2.229 --    42 B    1.110    53 C    0.935
    55   6 C    3.993 --    53 C    0.996    58 H    0.983    57 H    0.983
                            56 H    0.982
    56   1 H    0.997 --    55 C    0.982
    57   1 H    0.997 --    55 C    0.983
    58   1 H    0.996 --    55 C    0.983
    59   6 C    3.994 --    53 C    0.992    61 H    0.983    62 H    0.983
                            60 H    0.982
    60   1 H    0.998 --    59 C    0.982
    61   1 H    0.996 --    59 C    0.983
    62   1 H    0.997 --    59 C    0.983
    63   5 B    3.362 --    75 O    1.121    64 O    1.110    19 Ir   0.864
    64   8 O    2.227 --    63 B    1.110    65 C    0.938
    65   6 C    3.937 --    70 C    0.996    66 C    0.991    64 O    0.938
                            74 C    0.938
    66   6 C    3.992 --    65 C    0.991    69 H    0.983    68 H    0.983
                            67 H    0.979
    67   1 H    0.997 --    66 C    0.979
    68   1 H    0.997 --    66 C    0.983
    69   1 H    0.997 --    66 C    0.983
    70   6 C    3.992 --    65 C    0.996    72 H    0.983    73 H    0.982
                            71 H    0.982
    71   1 H    0.996 --    70 C    0.982
    72   1 H    0.996 --    70 C    0.983
    73   1 H    0.997 --    70 C    0.982
    74   6 C    3.935 --    76 C    0.996    80 C    0.991    65 C    0.938
                            75 O    0.936
    75   8 O    2.236 --    63 B    1.121    74 C    0.936
    76   6 C    3.993 --    74 C    0.996    77 H    0.983    78 H    0.982
                            79 H    0.981
    77   1 H    0.996 --    76 C    0.983
    78   1 H    0.997 --    76 C    0.982
    79   1 H    0.997 --    76 C    0.981
    80   6 C    3.995 --    74 C    0.991    81 H    0.984    83 H    0.983
                            82 H    0.983
    81   1 H    0.998 --    80 C    0.984
    82   1 H    0.997 --    80 C    0.983
    83   1 H    0.996 --    80 C    0.983
    84   1 H    0.996 --     4 C    0.969
    85   1 H    0.996 --    14 C    0.969
    86   6 C    3.943 --    87 C    1.383    88 C    1.373    19 Ir   0.583
                            20 H    0.352
    87   6 C    3.990 --    89 C    1.439    86 C    1.383    90 H    0.964
    88   6 C    3.987 --    91 C    1.424    86 C    1.373    92 H    0.959
                            89 C    0.104
    89   6 C    3.987 --    87 C    1.439    93 C    1.430    94 H    0.967
                            88 C    0.104
    90   1 H    0.998 --    87 C    0.964
    91   6 C    3.901 --    88 C    1.424    93 C    1.397    95 Cl   0.938
    92   1 H    0.996 --    88 C    0.959
    93   6 C    3.982 --    89 C    1.430    91 C    1.397    96 H    0.968
    94   1 H    0.997 --    89 C    0.967
    95  17 Cl   1.062 --    91 C    0.938
    96   1 H    0.996 --    93 C    0.968
 ---------------------------------------------------------------------------

Topologies differ in total number of bonds
Writing topology from bond orders to xtbtopo.mol

molecular dipole:
                 x           y           z       tot (Debye)
 q only:       -0.767       0.311      -2.077
   full:       -1.782       0.556      -2.389       7.705
molecular quadrupole (traceless):
                xx          xy          yy          xz          yz          zz
 q only:       19.650       4.843       8.703     -12.977      15.829     -28.353
  q+dip:       22.368       6.122       4.809     -11.544      19.534     -27.176
   full:       19.798       6.872       7.221     -12.918      16.766     -27.019


           -------------------------------------------------
          | TOTAL ENERGY             -140.482846804769 Eh   |
          | GRADIENT NORM               0.034028842580 Eh/α |
          | HOMO-LUMO GAP               0.899232985116 eV   |
           -------------------------------------------------

------------------------------------------------------------------------
 * finished run on 2021/10/08 at 07:27:53.011     
------------------------------------------------------------------------
 total:
 * wall-time:     0 d,  0 h,  0 min,  0.142 sec
 *  cpu-time:     0 d,  0 h,  0 min,  0.828 sec
 * ratio c/w:     5.844 speedup
 SCF:
 * wall-time:     0 d,  0 h,  0 min,  0.103 sec
 *  cpu-time:     0 d,  0 h,  0 min,  0.618 sec
 * ratio c/w:     5.975 speedup

