96
 energy: -140.467823316172 gnorm: 0.074904991324 xtb: 6.4.0 (f63f532)
N        -0.96510000000000   -2.11530000000000   -0.24090000000000
C        -2.24700000000000   -1.69840000000000   -0.36220000000000
C        -3.14040000000000   -2.36820000000000   -1.21200000000000
C        -2.70220000000000   -3.47560000000000   -1.93050000000000
C        -1.37780000000000   -3.89880000000000   -1.78760000000000
C        -0.54290000000000   -3.18670000000000   -0.93510000000000
H         0.49810000000000   -3.45630000000000   -0.78940000000000
H        -0.99570000000000   -4.76030000000000   -2.32770000000000
H        -4.16500000000000   -2.02890000000000   -1.31830000000000
C        -2.62130000000000   -0.50950000000000    0.44100000000000
N        -1.62600000000000    0.07330000000000    1.16020000000000
C        -1.89680000000000    1.15240000000000    1.91690000000000
C        -3.17230000000000    1.70330000000000    1.99650000000000
C        -4.20510000000000    1.11740000000000    1.26270000000000
C        -3.92610000000000    0.00250000000000    0.47820000000000
H        -4.71960000000000   -0.46420000000000   -0.09520000000000
H        -3.34630000000000    2.57510000000000    2.62070000000000
H        -1.04450000000000    1.57420000000000    2.43690000000000
Ir        0.42150000000000   -0.81650000000000    0.91330000000000
H         0.87260000000000   -2.23030000000000    1.54050000000000
B         0.50670000000000    0.41560000000000   -0.81540000000000
O         0.19500000000000   -0.04700000000000   -2.09150000000000
C         0.00650000000000    1.10040000000000   -2.95430000000000
C         0.49020000000000    0.74740000000000   -4.35780000000000
H         1.51610000000000    0.37380000000000   -4.33700000000000
H         0.44730000000000    1.62240000000000   -5.01670000000000
H        -0.14740000000000   -0.03390000000000   -4.78430000000000
C        -1.50120000000000    1.39560000000000   -2.96670000000000
H        -1.75370000000000    2.21460000000000   -3.64850000000000
H        -2.03200000000000    0.49450000000000   -3.28930000000000
H        -1.85170000000000    1.65210000000000   -1.96220000000000
C         0.84230000000000    2.20670000000000   -2.22040000000000
O         0.75200000000000    1.78260000000000   -0.83690000000000
C         2.32930000000000    2.18620000000000   -2.59900000000000
H         2.74130000000000    1.18500000000000   -2.45750000000000
H         2.48870000000000    2.51300000000000   -3.63180000000000
H         2.87200000000000    2.86270000000000   -1.93200000000000
C         0.28440000000000    3.62290000000000   -2.33660000000000
H        -0.72650000000000    3.69040000000000   -1.92910000000000
H         0.92130000000000    4.31480000000000   -1.77610000000000
H         0.26430000000000    3.94810000000000   -3.38320000000000
B         1.56300000000000    0.60960000000000    1.84840000000000
O         2.92780000000000    0.55230000000000    2.15020000000000
C         3.36330000000000    1.88660000000000    2.50260000000000
C         4.53140000000000    1.78590000000000    3.47740000000000
H         4.27910000000000    1.16090000000000    4.33690000000000
H         5.39390000000000    1.33790000000000    2.97340000000000
H         4.82390000000000    2.77870000000000    3.83820000000000
C         3.79700000000000    2.56850000000000    1.19670000000000
H         4.20020000000000    3.57090000000000    1.37680000000000
H         4.56740000000000    1.95560000000000    0.72110000000000
H         2.95240000000000    2.63260000000000    0.50540000000000
C         2.05040000000000    2.50090000000000    3.09320000000000
O         1.03750000000000    1.81620000000000    2.31910000000000
C         1.89100000000000    4.00450000000000    2.88650000000000
H         1.87290000000000    4.25440000000000    1.82410000000000
H         0.94940000000000    4.34260000000000    3.33170000000000
H         2.71080000000000    4.55150000000000    3.36630000000000
C         1.82470000000000    2.13200000000000    4.56520000000000
H         1.92610000000000    1.05330000000000    4.71320000000000
H         2.52610000000000    2.65280000000000    5.22540000000000
H         0.80630000000000    2.41580000000000    4.84900000000000
B         2.27820000000000   -1.33090000000000    0.17410000000000
O         2.89460000000000   -2.57740000000000    0.38450000000000
C         4.26930000000000   -2.48200000000000   -0.07210000000000
C         5.10900000000000   -2.05380000000000    1.14010000000000
H         4.76350000000000   -1.08740000000000    1.51750000000000
H         4.98050000000000   -2.79470000000000    1.93590000000000
H         6.17420000000000   -1.99290000000000    0.89300000000000
C         4.71950000000000   -3.84660000000000   -0.58470000000000
H         4.75280000000000   -4.56130000000000    0.24420000000000
H         5.72330000000000   -3.78370000000000   -1.02010000000000
H         4.03500000000000   -4.23600000000000   -1.34170000000000
C         4.16440000000000   -1.36220000000000   -1.16300000000000
O         3.08520000000000   -0.55030000000000   -0.65400000000000
C         5.40720000000000   -0.48870000000000   -1.31550000000000
H         6.27320000000000   -1.09010000000000   -1.61530000000000
H         5.23300000000000    0.26930000000000   -2.08590000000000
H         5.64270000000000    0.02650000000000   -0.38240000000000
C         3.71800000000000   -1.89830000000000   -2.53110000000000
H         2.82530000000000   -2.52160000000000   -2.42740000000000
H         3.46090000000000   -1.05250000000000   -3.17550000000000
H         4.50570000000000   -2.48290000000000   -3.01790000000000
H        -3.38500000000000   -4.00130000000000   -2.59310000000000
H        -5.21400000000000    1.52080000000000    1.29960000000000
C         0.23590000000000   -1.68140000000000    2.96030000000000
C        -1.00290737106189   -2.10355949265679    3.44256147522329
C         1.33653545331621   -1.82596816582788    3.81299668869275
C        -1.14426545520685   -2.60951088096287    4.72826549374584
H        -1.88106661062219   -2.05911094984558    2.81023168084809
C         1.19293776015847   -2.35480289028101    5.08499405414542
H         2.32242785675551   -1.56259068552615    3.45261263475022
C        -0.04560338730304   -2.76004952670777    5.56214260992742
H        -2.11792346693570   -2.92896172647640    5.07859022794396
Cl        2.59704475145407   -2.58520919345340    6.07034815471376
H        -0.13829228273541   -3.20516128838283    6.54339998597120
96
 energy: -140.474236332037 gnorm: 0.046989349283 xtb: 6.4.0 (f63f532)
N        -0.96116049712410   -2.09992459977332   -0.25218909757114
C        -2.23914812210485   -1.68988237506685   -0.36523171421942
C        -3.13426997516603   -2.36190095496759   -1.20632565201014
C        -2.70404020973555   -3.46349512342449   -1.92203040680620
C        -1.38417008163201   -3.88214431466171   -1.78313501865225
C        -0.55370539828105   -3.16770075413653   -0.94142533475651
H         0.47994166853878   -3.44774608565943   -0.79196029015170
H        -1.00790800101326   -4.74217178425079   -2.31837166766519
H        -4.15478629636839   -2.02659506073125   -1.31014609190678
C        -2.61045795995045   -0.51205777917512    0.43403533996286
N        -1.61771442276293    0.06964002249870    1.14348248518018
C        -1.89641148629449    1.13898868021898    1.89275295924057
C        -3.16414603622516    1.68654508564522    1.98305865614388
C        -4.19546330851739    1.10244045858831    1.25661530142335
C        -3.91400246385249   -0.00383929450007    0.47584171325929
H        -4.70554988393368   -0.46766078275511   -0.09238720158094
H        -3.33922942559426    2.54919199799764    2.61041172655094
H        -1.05341051449509    1.55658694175020    2.42232261275974
Ir        0.42150000000000   -0.81650000000000    0.91330000000000
H         0.87260000000000   -2.23030000000000    1.54050000000000
B         0.49203690787390    0.42313988747551   -0.79129471249013
O         0.17520118133459   -0.03511067982245   -2.06347576257688
C         0.01014621698437    1.09719988294732   -2.94343501747562
C         0.48918465392070    0.74810241383412   -4.34839593436005
H         1.50815820884077    0.37145923877624   -4.32713916784018
H         0.44426994325827    1.62372691633416   -4.99656157775347
H        -0.14956470702819   -0.02778673172246   -4.76888240118588
C        -1.49396101756152    1.39948280467080   -2.96935088526510
H        -1.73232428386426    2.21254144266737   -3.65335004300528
H        -2.02383434429312    0.50241497534627   -3.28952749434901
H        -1.84034275547964    1.65417788374109   -1.96761950390190
C         0.83163237671632    2.20700633579434   -2.21184956797313
O         0.75549146800915    1.77912612448117   -0.83494007376800
C         2.31404824220605    2.19135791725197   -2.59958729031545
H         2.71861630806333    1.19235351083766   -2.44994306244238
H         2.46540377842978    2.51310616772304   -3.62925032557888
H         2.85621540818606    2.86609956110703   -1.93813293800853
C         0.27986721176596    3.62305385023998   -2.33838987807641
H        -0.72337536757337    3.69191619569771   -1.92604535445244
H         0.91949621240147    4.30669821404886   -1.78173778006490
H         0.26216475157905    3.93577223271413   -3.38252243569285
B         1.56431093003990    0.61551577041145    1.85895960122199
O         2.92499879785828    0.56424853179171    2.13756283321947
C         3.36311363721582    1.88586214398903    2.50980858382623
C         4.53316049865557    1.78865057412987    3.48022258142653
H         4.28181884847202    1.16026918520494    4.33062648465259
H         5.38846084046537    1.34467677965764    2.97256734697330
H         4.81560116259719    2.77890099940128    3.83658151089732
C         3.79851372107509    2.57343675737390    1.21134212842241
H         4.19981453095860    3.56904479669710    1.39587867296158
H         4.56284121266939    1.96240900379433    0.73419442890366
H         2.95023006941697    2.62600569044614    0.53016701850024
C         2.05310539863776    2.50407115492467    3.09013555982079
O         1.04038865567195    1.80810914913905    2.33710488276229
C         1.89382915770078    4.00617365308833    2.88980312546967
H         1.86827451833677    4.24989421863629    1.83154028721206
H         0.95650432042019    4.33504515086876    3.33680002748505
H         2.71435026204169    4.54235016276321    3.36597284509961
C         1.83231871638845    2.13937054882780    4.56224736492505
H         1.93573781671107    1.06375720278488    4.70073081675157
H         2.53329144072171    2.66088096662813    5.21144760365455
H         0.81765178462472    2.41678890395576    4.84715478199200
B         2.27820000000000   -1.33090000000000    0.17410000000000
O         2.90128327058361   -2.56137296036412    0.39095889201963
C         4.26550441796910   -2.48308404699877   -0.07854665544815
C         5.11038499712740   -2.05831896209150    1.12697808440607
H         4.75479656496189   -1.09814914288106    1.49865585599966
H         4.97985053027725   -2.79404648361182    1.91978877989728
H         6.16808740525997   -1.99818877051646    0.87523285147499
C         4.72030523694554   -3.84499934353475   -0.58878732827052
H         4.75047358880344   -4.54945117575486    0.24116479903483
H         5.71801961404562   -3.77306609020785   -1.02104246481152
H         4.03455150197756   -4.23246298249091   -1.33744049109905
C         4.16590626340724   -1.35975902815591   -1.15830866158272
O         3.07330904853638   -0.56360061317990   -0.66228724730386
C         5.40906130689360   -0.49129240963324   -1.31591785987865
H         6.26530651296184   -1.09692719750093   -1.61172333923375
H         5.23062945452066    0.25987582329088   -2.08413689594372
H         5.63704422793625    0.02310634478021   -0.38686342104301
C         3.72907654406791   -1.89874485923400   -2.52647339494413
H         2.83719665025310   -2.51439813061602   -2.41800069459266
H         3.47184548903923   -1.05702873328085   -3.16805266337074
H         4.51942434826690   -2.47546406824098   -3.00408174520405
H        -3.38344236867140   -3.98835082932970   -2.57977736511883
H        -5.19956364207404    1.50321366791626    1.29759118494170
C         0.23589999999999   -1.68140000000000    2.96030000000001
C        -1.00404260317200   -2.10231111120843    3.44099405364744
C         1.33343543491296   -1.81912130419045    3.82002764036603
C        -1.14811906582321   -2.60291272796849    4.72650485760927
H        -1.87900395793038   -2.06191917394495    2.80686592266058
C         1.18429681076103   -2.34222459622559    5.09040643011590
H         2.31826764214245   -1.55397373889996    3.46391882164081
C        -0.05379908366914   -2.74813192067438    5.56302835656474
H        -2.12058291209001   -2.92304818045689    5.07415096582106
Cl        2.58747992895123   -2.56634237003723    6.08516635947800
H        -0.14902200291967   -3.18945338987026    6.54343326882695
96
 energy: -140.476052453017 gnorm: 0.037914720627 xtb: 6.4.0 (f63f532)
N        -0.95292974323381   -2.09217882733873   -0.26131307164932
C        -2.22854764753946   -1.68306931810785   -0.36948290594954
C        -3.12916470030804   -2.35390298792843   -1.20471245606935
C        -2.70747693320985   -3.45321937297792   -1.92091677476283
C        -1.38803054231318   -3.87206477886464   -1.78621049634962
C        -0.55748324548534   -3.15793805293374   -0.94940594917155
H         0.47478385781995   -3.44195871771216   -0.80788414250849
H        -1.01758338993585   -4.73167385602990   -2.31969376250224
H        -4.14853467277963   -2.02005164872629   -1.29999117798469
C        -2.59633938673991   -0.51388031266099    0.42638468986822
N        -1.60638691529432    0.06392275477787    1.13624566576230
C        -1.89139186695924    1.12681895233508    1.88176101285045
C        -3.15538893121324    1.67374718637645    1.97625616190777
C        -4.18706272834450    1.08980970685747    1.25075241209165
C        -3.90101016833316   -0.00944034406879    0.46915572806750
H        -4.69027896514475   -0.47578763950690   -0.09559034060412
H        -3.33151325188296    2.53092571800524    2.60519565202846
H        -1.05345083412450    1.55004660934971    2.41155017477954
Ir        0.42150000000000   -0.81650000000000    0.91330000000000
H         0.87260000000000   -2.23030000000000    1.54050000000000
B         0.49531353154691    0.43266611113469   -0.76993826502226
O         0.15524843932724   -0.02499084239000   -2.03464844222379
C         0.00468918216456    1.09554130955949   -2.92356961058826
C         0.48848896474076    0.74235906791513   -4.32621559252509
H         1.50376603702872    0.36219749010883   -4.30614692842851
H         0.44355030599956    1.62139689890274   -4.96409365979716
H        -0.15411836378118   -0.02727557002177   -4.74557295951157
C        -1.49771576616403    1.40713627741992   -2.96831531597021
H        -1.71788478399488    2.21673891337181   -3.65746307283538
H        -2.02694630902305    0.51263071231024   -3.28971715302720
H        -1.84628913767215    1.66478269115120   -1.97046201309848
C         0.82311090599743    2.20728520494244   -2.19813726403531
O         0.75925460525543    1.78247952873113   -0.82633481773681
C         2.30285760272062    2.19763030561606   -2.59659950891801
H         2.70509917786744    1.20040025361470   -2.44053285315142
H         2.44055753308030    2.51254378453459   -3.62703858274323
H         2.84476970521382    2.87689520067119   -1.94327600024514
C         0.26832333359485    3.62179423881215   -2.33260920371039
H        -0.73064191336404    3.69612377868354   -1.91649210869963
H         0.91313247606358    4.30398260232855   -1.78535133091886
H         0.25084231474069    3.91837079577269   -3.37792986294099
B         1.56763359106719    0.62196048192939    1.86532160435901
O         2.92355297015103    0.57384373822690    2.12677656912277
C         3.36215240076862    1.88579403909872    2.51329833267324
C         4.53090274438424    1.78782430510199    3.48593436624168
H         4.28372745233700    1.15434840883749    4.33085131590193
H         5.38404140703466    1.35178408139402    2.97352746807600
H         4.80303186882098    2.77756866066855    3.84103884027333
C         3.80160015305125    2.58428276143016    1.22233175375899
H         4.19920827523868    3.57589331379086    1.41550359594570
H         4.56528702914441    1.97652661410712    0.74474741239916
H         2.95169468388489    2.63137009762861    0.54591934904252
C         2.05411404353317    2.50219009582812    3.09327769706351
O         1.04280099340489    1.79981067721560    2.35349016559477
C         1.89592245713218    4.00417452188273    2.89149444599865
H         1.86215570601927    4.24657932062676    1.83537054858940
H         0.96369441524999    4.32885603924352    3.34521587247892
H         2.72010795936004    4.53163637972038    3.36288136229454
C         1.84409975683688    2.14534220724052    4.56962299263196
H         1.95152314019018    1.07140038504719    4.70281544130345
H         2.54711886943981    2.67110960897354    5.20765312521580
H         0.83124817471446    2.41838867442943    4.85606818033866
B         2.27820000000000   -1.33090000000000    0.17410000000000
O         2.90418987957997   -2.54871441362509    0.39963546401784
C         4.25879374538006   -2.48046124122496   -0.08013605435415
C         5.11557716602333   -2.05989401388412    1.11801673167345
H         4.75534205448545   -1.10289422343567    1.48767304866362
H         4.98705503133859   -2.79477553331643    1.90834450172831
H         6.16740469418175   -2.00033975735004    0.85663788377638
C         4.71238668403838   -3.84176776849437   -0.59413418170603
H         4.74569504238354   -4.54008601889100    0.23700165381371
H         5.70581338436881   -3.76018562030011   -1.02572434925415
H         4.02631181021232   -4.23070755844852   -1.33813026027875
C         4.16077915335712   -1.35883577570885   -1.15761833769893
O         3.06044577293320   -0.57281880807697   -0.67102613972944
C         5.40500581983408   -0.49145140039175   -1.31101940617511
H         6.25357382963870   -1.10413857973496   -1.60151139439695
H         5.22769768531902    0.25309584040798   -2.08193812017475
H         5.62982945800549    0.02499076997836   -0.38509103305289
C         3.73884660077926   -1.90089912732863   -2.52985268901887
H         2.84823429835449   -2.51413323851913   -2.42091838979772
H         3.48518602386312   -1.06080359320858   -3.17144213728530
H         4.53572790099586   -2.47271029703294   -2.99469535638687
H        -3.38883029882190   -3.97863649120057   -2.57161855201794
H        -5.19024487982223    1.48493348689445    1.29690083429834
C         0.23589999999998   -1.68140000000000    2.96030000000002
C        -1.00625468314722   -2.10147954373523    3.43609000762934
C         1.32817187165724   -1.80722404338648    3.83023147202222
C        -1.15757081166825   -2.59198692621589    4.72406689952343
H        -1.87654907141378   -2.06798203557011    2.79630043347733
C         1.16970648970742   -2.31966154614660    5.10183241981056
H         2.31311921231542   -1.53965274586423    3.47932321274372
C        -0.06945427432332   -2.72659793043326    5.56881735864491
H        -2.13079236197786   -2.91194981388304    5.06727598356062
Cl        2.56854034277927   -2.52827129543422    6.11387148553532
H        -0.17001171308498   -3.16008943059371    6.55113337553002
96
 energy: -140.476872723190 gnorm: 0.037400590596 xtb: 6.4.0 (f63f532)
N        -0.94297702188666   -2.08885113144358   -0.27272989045681
C        -2.21924142544748   -1.67968567895105   -0.37504087765438
C        -3.12538516287059   -2.35011366006488   -1.20572764294202
C        -2.70999398590430   -3.44963121748857   -1.92357731523798
C        -1.38862608862629   -3.86842138453772   -1.79589269770975
C        -0.55372690212379   -3.15343500602139   -0.96410697917681
H         0.47845978125831   -3.44166822348674   -0.82849168996655
H        -1.02272053634030   -4.72881459906257   -2.32990899136215
H        -4.14454963481065   -2.01453901864211   -1.29439151338634
C        -2.58489252816532   -0.51470100737122    0.42117314841737
N        -1.59544906774150    0.06314721433223    1.13197480826595
C        -1.88395989591746    1.12458888209960    1.87665929598088
C        -3.14874138554879    1.66802760151360    1.97494973710329
C        -4.18121434316848    1.08182123358271    1.24983404658683
C        -3.89135002787352   -0.01320910823156    0.46543431831575
H        -4.67824701626696   -0.48089076912330   -0.10095117954503
H        -3.32654409298086    2.52186831767584    2.60656064243935
H        -1.04935598553000    1.55036165748472    2.41007303062842
Ir        0.42150000000000   -0.81650000000000    0.91330000000000
H         0.87260000000000   -2.23030000000000    1.54050000000000
B         0.48121288170589    0.44678638681583   -0.75035154633973
O         0.13215760718001   -0.01538198639358   -2.01058030273818
C        -0.00531515833902    1.09705863524287   -2.90551251422839
C         0.48565156745801    0.73490258412951   -4.30425056092073
H         1.49834599310467    0.34897268419144   -4.27852206841396
H         0.44755483550604    1.61437995289346   -4.94105555208759
H        -0.16011233026392   -0.03140614047738   -4.72408425563882
C        -1.50653547856479    1.41709248224282   -2.96657301760526
H        -1.71162581658766    2.22492758540486   -3.66156515097049
H        -2.03661960662423    0.52427647755969   -3.29019495438460
H        -1.86311118957306    1.68051651770779   -1.97336008222980
C         0.81380399975326    2.21078449851388   -2.18373281273760
O         0.75964667304672    1.79124897212333   -0.81358406829058
C         2.29181470304766    2.20399304615434   -2.59224198946974
H         2.69672027189586    1.20890553179741   -2.43056300407191
H         2.41938413384880    2.51154273206857   -3.62563157059483
H         2.83467621594202    2.89038703931049   -1.94762821104513
C         0.25687973630942    3.62484429462397   -2.32422232918493
H        -0.73954073241450    3.70241379466268   -1.90332699766464
H         0.90554393231099    4.31086810630646   -1.78681127454124
H         0.23418815216785    3.90947027559698   -3.37231873505950
B         1.56901812917967    0.62297855920448    1.87338451802337
O         2.92510129283186    0.57910431180107    2.11683730872341
C         3.36244683777749    1.88551537175567    2.51580417732090
C         4.53101219170103    1.78461915043403    3.48993506758966
H         4.28649259335220    1.14432011700202    4.33018393866169
H         5.38641582312788    1.35705294132780    2.97462720663520
H         4.79538648315471    2.77398377401614    3.85066060760928
C         3.80491148650052    2.59617992219698    1.23144864407383
H         4.19827753700312    3.58678223552489    1.43460485271432
H         4.57199518305898    1.99405178069494    0.75256075206915
H         2.95614027629227    2.64425204113227    0.55423591511996
C         2.05521835320050    2.49965276594808    3.09981457922043
O         1.04258137247076    1.79167913041051    2.37131208787738
C         1.89486786242825    4.00194730731412    2.89529212453229
H         1.85195469716444    4.24257059115431    1.83922519833449
H         0.96719350708834    4.32723543173369    3.35725327784399
H         2.72440328123341    4.52711482425228    3.35874968284767
C         1.85627877036097    2.14991079366635    4.58047866623025
H         1.96845120592440    1.07707477524893    4.71619980689564
H         2.56254736420120    2.68180182996121    5.20885154335418
H         0.84455840537785    2.42075028609097    4.87155471086453
B         2.27819999999999   -1.33090000000001    0.17410000000001
O         2.90693448638941   -2.54131166240222    0.40930626423101
C         4.25451546216480   -2.47854368384284   -0.08099182152655
C         5.12284125656617   -2.06030069114856    1.11080830177093
H         4.76384821440071   -1.10424332516600    1.48338585255302
H         4.99998135323910   -2.79654647139979    1.90027653075009
H         6.17141667852735   -2.00073459472936    0.83939668287286
C         4.70391317452749   -3.84128504312096   -0.59779063708194
H         4.74186348397081   -4.53826906251884    0.23380914346165
H         5.69451929059558   -3.75608225962503   -1.03380452246908
H         4.01445520095791   -4.23053557580159   -1.33810677211528
C         4.15607076849470   -1.35791926876672   -1.15931240594721
O         3.04974479925774   -0.57779907933721   -0.68138420461627
C         5.40006994381417   -0.48823975615798   -1.30751965976937
H         6.24801660222116   -1.10447590172236   -1.59073203715632
H         5.22650799156763    0.25245468596679   -2.08254020190355
H         5.61990615459624    0.03124282571156   -0.38244128535307
C         3.74755450822172   -1.90311035770745   -2.53546155498292
H         2.85774771711517   -2.51780557572784   -2.43244521717920
H         3.49895651496614   -1.06407746614511   -3.18002816593122
H         4.55132583181845   -2.47280714837219   -2.98954796989051
H        -3.39517683367773   -3.97476267211454   -2.56987396671306
H        -5.18550830760087    1.47247544299604    1.29900675755492
C         0.23589999999997   -1.68140000000001    2.96030000000004
C        -1.00886399484859   -2.10122477282626    3.42925315280827
C         1.32140576459144   -1.79287630254500    3.84133867431121
C        -1.17026632690341   -2.57837394811217    4.72124636221754
H        -1.87344188422775   -2.07791507819303    2.78107036893289
C         1.15170375327599   -2.29052377730536    5.11694614403467
H         2.30766438113764   -1.52332668918234    3.49623718977634
C        -0.08945895525691   -2.69824091324062    5.57774407491258
H        -2.14544106350140   -2.89824989484317    5.05884260193267
Cl        2.54299028707193   -2.47799680605043    6.14942974834887
H        -0.19714614886291   -3.12046653114514    6.56422869287544
96
 energy: -140.477870538787 gnorm: 0.037562386536 xtb: 6.4.0 (f63f532)
N        -0.92992747757839   -2.08842626427733   -0.28703400545953
C        -2.20760606327604   -1.67800738341880   -0.38261910424581
C        -3.11943534692139   -2.34732178203043   -1.20978513332595
C        -2.71080185379264   -3.44708243649845   -1.93064095454149
C        -1.38689497653784   -3.86567478050029   -1.81254314819320
C        -0.54587904171102   -3.15089547874672   -0.98539913559396
H         0.48800897454343   -3.44074381120430   -0.86107863151035
H        -1.02571027996783   -4.72608276385989   -2.35009942306586
H        -4.13881844120634   -2.00932957172672   -1.29030911490454
C        -2.57115879744378   -0.51656949739374    0.41616901286745
N        -1.58230047410319    0.05956108447476    1.13217086266398
C        -1.87382495599744    1.12168955872040    1.87655006161690
C        -3.13985998682612    1.66218807142580    1.97609857903613
C        -4.17278946978698    1.07445751374524    1.24965793411580
C        -3.87878280501759   -0.01554526837106    0.46045464556558
H        -4.66284322481552   -0.48373087971467   -0.10993752307824
H        -3.31942299014065    2.51354352822568    2.61049298915488
H        -1.04167472431444    1.55230782806153    2.41106506044210
Ir        0.42150000000000   -0.81650000000000    0.91330000000000
H         0.87260000000000   -2.23030000000000    1.54050000000000
B         0.47927393091387    0.46437561787329   -0.72657302722782
O         0.09948582502518   -0.00007827935017   -1.97773685724849
C        -0.02326958459371    1.10279852585193   -2.87928299156109
C         0.47800626088808    0.72322532826272   -4.27111366515136
H         1.48630486257581    0.32564006977564   -4.23137917715680
H         0.45600741346995    1.59916646068715   -4.91418002577933
H        -0.17242037158509   -0.03955921802428   -4.69101922874736
C        -1.52236521718689    1.43542825555559   -2.96258355867057
H        -1.70861767255676    2.24069918361456   -3.66622042975722
H        -2.05504344069659    0.54497636018935   -3.28915026149561
H        -1.89309594801586    1.70895450274074   -1.97683509199401
C         0.80071825567973    2.21986758947190   -2.16425849090196
O         0.76162885949553    1.80552300518959   -0.79529959959838
C         2.27648909128504    2.21701843831454   -2.58560957297981
H         2.68820821118938    1.22587087420502   -2.41476555223976
H         2.39160957081709    2.51217945400763   -3.62419946356223
H         2.82064672643750    2.91555350086967   -1.95452851508935
C         0.23813269448048    3.63250813427406   -2.30982050389143
H        -0.75413666562418    3.71254378216775   -1.87865474176236
H         0.89190333217510    4.32652519751643   -1.78794945360243
H         0.20246792120679    3.90430247089884   -3.36141429550732
B         1.57172653386851    0.62577759056206    1.87709381595428
O         2.92930782655446    0.58738352733489    2.10044727117277
C         3.36522566832044    1.88700902058270    2.51830609978355
C         4.53329299562850    1.77748314042486    3.49419367368320
H         4.29177877552332    1.12406120775039    4.32586664522676
H         5.39374348801718    1.36369604203525    2.97492088554497
H         4.78887524189290    2.76446744609035    3.86944523077730
C         3.81212018066611    2.61628483754956    1.24425107490759
H         4.19827449918905    3.60670607605526    1.46333866272952
H         4.58673126219311    2.02472697065416    0.76329062371389
H         2.96726965988017    2.66884130795594    0.56223855371042
C         2.05837426496277    2.49566712244082    3.11241027077761
O         1.04215455986921    1.78059884893316    2.39876345171382
C         1.89187260397087    3.99789181418518    2.90260008125356
H         1.83225669445084    4.23442736555520    1.84578467375127
H         0.97150004129507    4.32562142814439    3.37863833282698
H         2.72958748577308    4.52501000058013    3.35041244896820