24
 energy: -34.218985254557 gnorm: 0.000112340129 xtb: 6.4.0 (f63f532)
C         0.65281384412365    0.41213466688264    0.94103361957520
C         0.78460347283720    1.07185142469135   -0.27308355998609
C         0.15934362961246    0.52460818310004   -1.38104829040023
N        -0.55434198649116   -0.58919128026390   -1.33998038492422
C        -0.68510842637469   -1.22083850569007   -0.18074678759296
C        -1.48012583735546   -2.49878047768934   -0.18759061840038
C        -0.55855834027729   -3.67052171132117    0.03609690049669
C        -0.62637756228029   -4.43260026584546    1.19418617559374
C         0.24121642825332   -5.49450970750851    1.39032361927329
C         1.19099278728473   -5.80189963885669    0.43163385312301
C         1.26848867164702   -5.04337398777428   -0.72562162298539
C         0.39955964195399   -3.98543902922492   -0.92098495074413
C        -0.09239742662629   -0.75193532537921    0.98992998291661
H         1.12425297303786    0.80078338883691    1.83230075161736
H         1.35644308454491    1.98260659583616   -0.35610856208211
H         0.22708010148677    0.99407592584161   -2.35451586339498
H        -1.97119928203727   -2.58931996529819   -1.15747943829730
H        -2.23742412415884   -2.46513840737167    0.59744507798668
H        -1.36592473572485   -4.19992179822240    1.94778995335299
H         0.17490613995453   -6.08238573737813    2.29448950810778
H         1.86804981325144   -6.62955328216915    0.58420577226227
H         2.00813690500569   -5.27809271245926   -1.47746801981043
H         0.45955143431302   -3.39038867550589   -1.82095551303739
H        -0.21575120597970   -1.29707967723271    1.91312839734958
