24
 energy: -34.213872765441 gnorm: 0.051271318645 xtb: 6.4.0 (f63f532)
C         0.35973000000000    0.82436000000000    0.92794000000000
C         0.67851000000000    1.29327000000000   -0.34108000000000
C         0.37616000000000    0.48980000000000   -1.42606000000000
N        -0.22638000000000   -0.71520000000000   -1.32719000000000
C        -0.53868000000000   -1.15996000000000   -0.08128000000000
C        -1.27314000000000   -2.47781000000000    0.01817000000000
C        -0.40206000000000   -3.70946000000000    0.13113000000000
C        -0.52498000000000   -4.57200000000000    1.23091000000000
C         0.20913000000000   -5.75837000000000    1.28939000000000
C         1.07493000000000   -6.09696000000000    0.25123000000000
C         1.21518000000000   -5.24423000000000   -0.84142000000000
C         0.48125000000000   -4.05728000000000   -0.90173000000000
C        -0.24807000000000   -0.42084000000000    1.06430000000000
H         0.57620000000000    1.42848000000000    1.80423000000000
H         1.14882000000000    2.25915000000000   -0.48116000000000
H         0.61198000000000    0.80538000000000   -2.43867000000000
H        -1.91202000000000   -2.59365000000000   -0.86744000000000
H        -1.96820000000000   -2.42890000000000    0.86697000000000
H        -1.20973000000000   -4.33661000000000    2.04228000000000
H         0.09613000000000   -6.42594000000000    2.14004000000000
H         1.63527000000000   -7.02746000000000    0.29034000000000
H         1.88664000000000   -5.50667000000000   -1.65435000000000
H         0.58970000000000   -3.40819000000000   -1.76894000000000
H        -0.50814000000000   -0.79582000000000    2.04937000000000
24
 energy: -34.217105815035 gnorm: 0.018127789046 xtb: 6.4.0 (f63f532)
C         0.36443073838801    0.80907963064965    0.93162147705519
C         0.67925670165403    1.26903718061891   -0.33784575121680
C         0.37254984257450    0.45759609965872   -1.41533289988754
N        -0.22438982201162   -0.72741247031934   -1.30502626802621
C        -0.53527016292291   -1.16723697746731   -0.07999242367360
C        -1.27656982551871   -2.47737948880716    0.01185157900295
C        -0.40409319062318   -3.70567717271364    0.12639373608062
C        -0.52263716953582   -4.56148926846817    1.21829660078559
C         0.20830022948569   -5.73893297611185    1.28015982865097
C         1.07193873642435   -6.07603687805353    0.25087737730515
C         1.20931043748805   -5.22453883785888   -0.83416648198127
C         0.47636931764152   -4.04837443609756   -0.89565023658130
C        -0.24482475479066   -0.42884275588612    1.06288250597652
H         0.58035642617717    1.41178961408280    1.80396948333220
H         1.14270562141405    2.23366699781839   -0.48566480300864
H         0.59472676649197    0.76652940930104   -2.43012487077792
H        -1.89072343338770   -2.58279543836363   -0.88978326250946
H        -1.95144331628741   -2.43328992528918    0.87312787283624
H        -1.20256291179379   -4.32107122606872    2.02534883441974
H         0.09582346988157   -6.40071888787554    2.12916208402666
H         1.63143712015483   -7.00163787337757    0.29133550245426
H         1.87886663698536   -5.48452154195969   -1.64306734647923
H         0.58046232362904   -3.39559725382222   -1.75215789349479
H        -0.50578978151833   -0.80705552358949    2.04076535571065
24
 energy: -34.217655680637 gnorm: 0.003580973066 xtb: 6.4.0 (f63f532)
C         0.37320785347253    0.79135773820614    0.93452116225068
C         0.68474667006415    1.24719640934490   -0.33747970214287
C         0.37103479361702    0.43170866276910   -1.41208860958046
N        -0.22678882718999   -0.74096184070965   -1.29158231225320
C        -0.54049414676961   -1.17630075169667   -0.07744512331541
C        -1.29184305940262   -2.47829137765233    0.00898147459784
C        -0.41314098882192   -3.70081502281620    0.12201548066285
C        -0.52487241909428   -4.55113310723508    1.21373096061604
C         0.21144984321772   -5.72150702276596    1.27814318505346
C         1.07607693955268   -6.05507479103545    0.25088778835722
C         1.20979516579959   -5.20274599570443   -0.83249725928928
C         0.47070007801801   -4.03462769285271   -0.89595224176248
C        -0.24223968924580   -0.44125466597431    1.06653415061556
H         0.59402290278880    1.39198279731303    1.80488770218017
H         1.14999428270798    2.20843979542727   -0.49061384466684
H         0.59355388386683    0.73302837974312   -2.42821356555867
H        -1.88823664474700   -2.57527893434774   -0.90234648518098
H        -1.96101417545055   -2.43975676566388    0.87085063866198
H        -1.20547010921468   -4.30882641598959    2.01751414982206
H         0.10070892356999   -6.38026469372830    2.12734290338460
H         1.63931204379571   -6.97595081362635    0.29247390415558
H         1.88323112578779   -5.45735259155594   -1.63775488510174
H         0.56927932144157   -3.37638252652075   -1.74626270424875
H        -0.50478376776388   -0.82209877292850    2.04133323274259
24
 energy: -34.217839083297 gnorm: 0.004306345374 xtb: 6.4.0 (f63f532)
C         0.38174925428888    0.77679209877256    0.93511124818998
C         0.69399901425424    1.23068707807855   -0.33802829380882
C         0.37466994614566    0.41570527697307   -1.41254000839778
N        -0.23324868765937   -0.74987108692003   -1.28791208902801
C        -0.55103585909998   -1.18201422285997   -0.07556391230232
C        -1.30856165347882   -2.47970252908958    0.00698567225608
C        -0.42390632194629   -3.69751600876754    0.11984548301675
C        -0.52954289177697   -4.54600165057647    1.21307037347787
C         0.21540346312935   -5.71082686132905    1.27874371635805
C         1.08321902483689   -6.03827284901760    0.25192493435982
C         1.21298239768426   -5.18464609869158   -0.83151771490608
C         0.46485823798424   -4.02282652303834   -0.89699649823085
C        -0.24254585077663   -0.45102893444413    1.06967645596886
H         0.61008790119904    1.37509733065620    1.80497051248084
H         1.16302668028767    2.18941754787091   -0.49274515609402
H         0.59844507697953    0.71445384600601   -2.42905311444235
H        -1.89715094360379   -2.57300639918646   -0.90835879415574
H        -1.97892986192376   -2.44442304263930    0.86629841160729
H        -1.21189305079970   -4.30483516043613    2.01562479872931
H         0.10901907327952   -6.36859649195154    2.12904425619504
H         1.65227354663088   -6.95516401380787    0.29393403743482
H         1.89081165364817   -5.43406637404965   -1.63471200906900
H         0.55852323245941   -3.36087183128155   -1.74498872076342
H        -0.50402338174232   -0.83339310027092    2.04416641112361
24
 energy: -34.218002279653 gnorm: 0.003256746140 xtb: 6.4.0 (f63f532)
C         0.39117118798654    0.76251594752679    0.93433119809334
C         0.70293731442044    1.21566216540344   -0.33957366235827
C         0.37647219819603    0.40335838131051   -1.41444623342988
N        -0.24228453967254   -0.75738160404368   -1.28732221378191
C        -0.56161155465246   -1.18728371243993   -0.07366724825263
C        -1.32550272259475   -2.48104856235956    0.00528775336296
C        -0.43504497178914   -3.69446634564569    0.11954219561429
C        -0.53543559485007   -4.54301778246869    1.21373800217891
C         0.21901479015622   -5.70251478879481    1.27966805684468
C         1.09098150208202   -6.02198376697871    0.25323484289522
C         1.21707841303345   -5.16629038608180   -0.82983276709724
C         0.45937036855061   -4.01050014485274   -0.89655355831132
C        -0.24142264723885   -0.46087723367658    1.07233563111944
H         0.62831495854455    1.35859757688149    1.80382653708273
H         1.17802371990430    2.17136131317581   -0.49479300793148
H         0.60489835502232    0.69885732810176   -2.43087073594992
H        -1.90903526157298   -2.57230624973458   -0.91265710351341
H        -1.99996937299475   -2.44797252958959    0.86082084779340
H        -1.22138227308169   -4.30552455112985    2.01471316400995
H         0.11669248701410   -6.36122866967356    2.13005279029065
H         1.66692146107924   -6.93480626334089    0.29510903712891
H         1.90049508843862   -5.40940969685666   -1.63074097146156
H         0.54859035425645   -3.34474406830965   -1.74258861760243
H        -0.50104326023752   -0.84390635642341    2.04736606327548
24
 energy: -34.218131191747 gnorm: 0.002399413353 xtb: 6.4.0 (f63f532)
C         0.40110876166203    0.74889549605951    0.93311097944188
C         0.71260500878832    1.20143123183781   -0.34101130113566
C         0.37729631355292    0.39339027212311   -1.41616712378672
N        -0.25293677787708   -0.76232336408639   -1.28857648191858
C        -0.57216894925354   -1.19071915638813   -0.07320446528045
C        -1.34037025420739   -2.48189503372263    0.00359158716236
C        -0.44568571895616   -3.69208739578915    0.12016863721055
C        -0.54231163825135   -4.54207095815755    1.21387258599048
C         0.22178725594674   -5.69582061409999    1.28012793777915
C         1.09906427583721   -6.00642035732991    0.25532093162221
C         1.22139902573375   -5.14877737982729   -0.82694454889399
C         0.45414545797564   -3.99928070629359   -0.89454388847482
C        -0.24063500938448   -0.46957844371757    1.07299763611190
H         0.64723398735946    1.34222090451658    1.80244241844988
H         1.19496726990394    2.15372156786210   -0.49602052996236
H         0.60725177288648    0.68723166914858   -2.43268481106569
H        -1.92104947624432   -2.57299108248706   -0.91598935408868
H        -2.01908865979399   -2.44954668001456    0.85606525281291
H        -1.23228621668041   -4.31001195119638    2.01326023739615
H         0.12332351153676   -6.35628338977418    2.12987788538100
H         1.68277281633998   -6.91463269135402    0.29744702702751
H         1.90994841635137   -5.38536519425038   -1.62571850294024
H         0.53945237977659   -3.33075700473681   -1.73907502990782
H        -0.49759355300226   -0.85323973832277    2.04863292106894
24
 energy: -34.218238483628 gnorm: 0.002018381661 xtb: 6.4.0 (f63f532)
C         0.41118357984603    0.73616314734539    0.93197982005691
C         0.72164168199192    1.18881932471013   -0.34219385328314
C         0.37523760995207    0.38649681052896   -1.41777879066111
N        -0.26394994505024   -0.76488877261373   -1.29081610373542
C        -0.58095967851404   -1.19333931734812   -0.07417468953351
C        -1.35276469372639   -2.48237420587549    0.00211839022502
C        -0.45522014701529   -3.69023976010015    0.12083668471437
C        -0.54947807471271   -4.54219887735485    1.21313247814540
C         0.22354786686406   -5.69018825338794    1.28018422459689
C         1.10688475022177   -5.99227291868969    0.25811871791370
C         1.22561517640628   -5.13315420308562   -0.82336123258943
C         0.44954186400540   -3.98977524501351   -0.89189180605146
C        -0.23962268339129   -0.47749939954624    1.07198268791130
H         0.66596936789528    1.32587866673922    1.80147406796876
H         1.21301474194115    2.13682889871051   -0.49652232368555
H         0.60546795056368    0.67936944886889   -2.43449439387885
H        -1.93232810071987   -2.57437244714137   -0.91824618397751
H        -2.03404244286681   -2.44941464796936    0.85308218913444
H        -1.24385208670464   -4.31656765981962    2.01067121544557
H         0.12802360395939   -6.35263168199653    2.12881359894430
H         1.69866048298282   -6.89542475550614    0.30145544751580
H         1.91880405783688   -5.36335524453325   -1.62002730847299
H         0.53202080104933   -3.31946056840438   -1.73529488580154
H        -0.49516568281454   -0.86130833851795    2.04793204909789
24
 energy: -34.218342238883 gnorm: 0.001780179943 xtb: 6.4.0 (f63f532)
C         0.42279424710286    0.72259516980703    0.93094238000570
C         0.73212781269757    1.17583693298025   -0.34318335649243
C         0.37211105485467    0.38080757192386   -1.41950400320760
N        -0.27648240918820   -0.76557699520668   -1.29383750697541
C        -0.59056066087568   -1.19516192727746   -0.07649975233382
C        -1.36465610110910   -2.48277362699443    0.00066094229302
C        -0.46453637908133   -3.68851823987492    0.12107942763692
C        -0.55743173609322   -4.54292645548794    1.21133757124404
C         0.22463399401699   -5.68470035676854    1.28001734660842
C         1.11528945537947   -5.97808142800938    0.26191399977697
C         1.23060824546969   -5.11769899956768   -0.81879767852368
C         0.44559677989752   -3.98070973749124   -0.88882001824658
C        -0.23939006891316   -0.48518477312401    1.06968188504861
H         0.68699342119880    1.30732204634902    1.80099785637724
H         1.23317482042934    2.11904585581634   -0.49659099715799
H         0.59855882049918    0.67500099441320   -2.43671392987575
H        -1.94444277739388   -2.57642287180895   -0.91963414547547
H        -2.04650894070276   -2.44857462093614    0.85153828508386
H        -1.25670195610441   -4.32457781232225    2.00664734167007
H         0.13135099640778   -6.34913913510908    2.12730697767150
H         1.71557696077664   -6.87554803686958    0.30749970093059
H         1.92829591469852   -5.34134302480824   -1.61327740793477
H         0.52581378643765   -3.30938567588408   -1.73154117855026
H        -0.49398528040469   -0.86919485375003    2.04575626042667
24
 energy: -34.218489138432 gnorm: 0.001453605193 xtb: 6.4.0 (f63f532)
C         0.44293922036367    0.69905153360712    0.92931244921546
C         0.74901408574595    1.15451098530505   -0.34474482450443
C         0.36321889602236    0.37366421231639   -1.42273794104452
N        -0.29892748481920   -0.76475567018107   -1.29910629699890
C        -0.60610404686044   -1.19828184099193   -0.08146748174130
C        -1.38409908056579   -2.48344649859008   -0.00179791997654
C        -0.47946069890927   -3.68556842985168    0.12000684943020
C        -0.57103982030486   -4.54394690688374    1.20686538904517
C         0.22559410352397   -5.67524606328308    1.27964945036250
C         1.12930151302676   -5.95476971758456    0.26926316314048
C         1.23957931742850   -5.09275595126487   -0.81045172841614
C         0.44008555904526   -3.96631390858103   -0.88425399862653
C        -0.23859030169118   -0.49841602108325    1.06514520925406
H         0.72473909952653    1.27317492219931    1.80091439546173
H         1.26855577407429    2.08817168033102   -0.49647781782743
H         0.58321807854602    0.67108799800872   -2.44054556779919
H        -1.96591664420221   -2.57973255812343   -0.92081343757174
H        -2.06372404246699   -2.44730951216578    0.85099517081094
H        -1.27897482858387   -4.33759570291743    1.99769890328830
H         0.13491177777500   -6.34238509391887    2.12497365115430
H         1.74367674187832   -6.84233497353372    0.32011550419352
H         1.94553071748964   -5.30533408058492   -1.60053083935352
H         0.51792577771482   -3.29380988609811   -1.72611253806872
H        -0.49322371375698   -0.88256851613114    2.04108025657212
24
 energy: -34.218590973877 gnorm: 0.001135311597 xtb: 6.4.0 (f63f532)
C         0.46189367940059    0.67590531356398    0.92773654406933
C         0.76508435547975    1.13386679070403   -0.34611373698075
C         0.35699967369467    0.36639414699958   -1.42545044417465
N        -0.31975987737248   -0.76355502132767   -1.30314517865003
C        -0.62184180983818   -1.20086391982401   -0.08585366110664
C        -1.40242081819643   -2.48421822401570   -0.00447786473007
C        -0.49265949554413   -3.68255405273094    0.11735798442214
C        -0.58298356223186   -4.54383089164863    1.20196537738257
C         0.22630966225817   -5.66564494317847    1.27968709639945
C         1.14161043978516   -5.93316499914378    0.27652902229710
C         1.24837453271630   -5.06984512166578   -0.80238974728185
C         0.43617294990021   -3.95289109422893   -0.88110053836734
C        -0.23785136773471   -0.51122170906416    1.06170909190714
H         0.75964031538167    1.23959654821775    1.80062991816589
H         1.29810693862008    2.05961989485356   -0.49691007033937
H         0.56744371160632    0.66992078613826   -2.44357264000247
H        -1.98649009216148   -2.58186500295909   -0.92187393791208
H        -2.07897483563251   -2.44789745443618    0.85049227053282
H        -1.29829210990536   -4.34656796557130    1.98830589097052
H         0.13763639833896   -6.33417886821452    2.12407277351743
H         1.76744732606165   -6.81212258646397    0.33262715310669
H         1.96179030928293   -5.27315163628270   -1.58807498950979
H         0.51196794192696   -3.27966781637753   -1.72261790105509
H        -0.49097426583593   -0.89697217334508    2.03744758733885
24
 energy: -34.218659434529 gnorm: 0.001164937390 xtb: 6.4.0 (f63f532)
C         0.47744457476617    0.65441573203641    0.92648797509980
C         0.77556198093979    1.11610816932369   -0.34739734662817
C         0.34654609022131    0.36165226085614   -1.42786476576750
N        -0.33868564810272   -0.76252461840195   -1.30596495143159
C        -0.63366657835943   -1.20449997490515   -0.08911212074991
C        -1.41879354295174   -2.48491842216260   -0.00770350927194
C        -0.50418538299995   -3.67952327468115    0.11403688912841
C        -0.59298815269409   -4.54230195023118    1.19757264570600
C         0.22712145309760   -5.65570760466747    1.28032590959306
C         1.15172275244299   -5.91335703835121    0.28320398931500
C         1.25525847632546   -5.04955948951433   -0.79560244769651
C         0.43225868754757   -3.94101022800534   -0.87941489273547
C        -0.23511577775512   -0.52449442589311    1.05951731662422
H         0.79199733028417    1.20746730006109    1.80048957684113
H         1.32413064446023    2.03317563321888   -0.49738135811931
H         0.55694493444166    0.66697069799067   -2.44523092926673
H        -2.00399579175514   -2.58264327921105   -0.92430530900572
H        -2.09316591434784   -2.44933209249821    0.84871578940318
H        -1.31508148546572   -4.35197736203611    1.97935476315631
H         0.14025723579876   -6.32471614451657    2.12445717370494
H         1.78775733581151   -6.78453971948738    0.34453300577664
H         1.97645939461647   -5.24452948034961   -1.57639031575675
H         0.50714497257564   -3.26662035713062   -1.72012085606751
H        -0.48669758889717   -0.91244433144525    2.03477376814824
24
 energy: -34.218703673983 gnorm: 0.000704097406 xtb: 6.4.0 (f63f532)
C         0.49112873610819    0.63621511581957    0.92589838159629
C         0.78655994975801    1.10085176554134   -0.34761914971109
C         0.34291121212600    0.35662906364156   -1.42886950015610
N        -0.35441623300029   -0.76089891567072   -1.30814920894258
C        -0.64556778800441   -1.20618663737440   -0.09175697527229
C        -1.43198577206968   -2.48561132358747   -0.01146585088918
C        -0.51344864994189   -3.67721427298076    0.11114273330653
C        -0.60056413941546   -4.54050090558632    1.19448434426368
C         0.22828512463188   -5.64703693752617    1.28167579587258
C         1.15993712849150   -5.89711294022043    0.28916932454855
C         1.26084369135866   -5.03342297572308   -0.78995133760276
C         0.42907902631060   -3.93178401902886   -0.87829835908211
C        -0.23339422180111   -0.53560094277130    1.05794514728614
H         0.81713541503284    1.18150137084245    1.80014373918911
H         1.34253174472525    2.01292125436797   -0.49705106512779
H         0.54547714991995    0.66738796122514   -2.44638317508442
H        -2.01667846793481   -2.58340087957372   -0.92831539372847
H        -2.10648482063714   -2.45122010576392    0.84477972511921
H        -1.32746668406582   -4.35489097927685    1.97288790159912
H         0.14339886865945   -6.31589903256295    2.12611249393928
H         1.80355183504085   -6.76233549123688    0.35446378776355
H         1.98686920219742   -5.22290210813132   -1.56739998053123
H         0.50209398811942   -3.25735870436410   -1.71917096873036
H        -0.48156629560897   -0.92703936006028    2.03270759037408
24
 energy: -34.218731567373 gnorm: 0.000545838668 xtb: 6.4.0 (f63f532)
C         0.50155288011306    0.62101146759321    0.92589285773253
C         0.79355833134638    1.08939579879140   -0.34714431572191
C         0.33793685875147    0.35430321069768   -1.42943162619159
N        -0.36602128154228   -0.75907119075741   -1.30999219882707
C        -0.65323651859446   -1.20822739175646   -0.09407990833340
C        -1.44234812464620   -2.48615931672786   -0.01585579970716
C        -0.52101920094214   -3.67539391909916    0.10881092638093
C        -0.60601920244131   -4.53810017204185    1.19279650224610
C         0.22971209552087   -5.63911567711026    1.28367264670471
C         1.16620343554809   -5.88389792086469    0.29443844905603
C         1.26425929908244   -5.02129249388964   -0.78583455832188
C         0.42555700327744   -3.92529060633621   -0.87794513747597
C        -0.23081433933606   -0.54584721330579    1.05655629019060
H         0.83699771375577    1.15954491902716    1.80068856762635
H         1.35687950914549    1.99717908966543   -0.49535137453303
H         0.53728380546040    0.66815411562070   -2.44655970539994
H        -2.02477040904958   -2.58363575646974   -0.93409883837293
H        -2.11876701242953   -2.45246976046669    0.83888932028094
H        -1.33594564542587   -4.35569833423884    1.96902341403263
H         0.14721550187321   -6.30720695981758    2.12896386685218
H         1.81593021139504   -6.74422388336403    0.36314708625492
H         1.99399105061444   -5.20676340329048   -1.56075098475838
H         0.49630172334779   -3.25142321920261   -1.71949901136851
H        -0.47620768482398   -0.94068138265788    2.03064353165362
24
 energy: -34.218754463480 gnorm: 0.000548638240 xtb: 6.4.0 (f63f532)
C         0.51148145213939    0.60612843746685    0.92652700008899
C         0.80006425493613    1.07925065145849   -0.34555041301106
C         0.33254050102415    0.35372550821329   -1.42936215139810
N        -0.37785526872580   -0.75587926026863   -1.31207366510532
C        -0.66049275127016   -1.21008161406846   -0.09693044645618
C        -1.45166635823102   -2.48688802010240   -0.02181087840978
C        -0.52790268302504   -3.67383113026774    0.10619338900640
C        -0.60989887620390   -4.53437760751054    1.19206221419649
C         0.23224275281761   -5.63020110761569    1.28693965313673
C         1.17196949879582   -5.87163117340688    0.30013790454247
C         1.26641684442432   -5.01151706060361   -0.78246493074930
C         0.42122186141192   -3.92099911195241   -0.87871106656405
C        -0.22805432635650   -0.55647854196581    1.05495128765811
H         0.85609514441525    1.13749636693110    1.80230559623307
H         1.36974761038496    1.98343379935617   -0.49177884458307
H         0.52926163840814    0.67105271775703   -2.44584938226734
H        -2.03064974519560   -2.58417360049640   -0.94213727497878
H        -2.13095053693740   -2.45350423749017    0.83068708972490
H        -1.34284002499467   -4.35475401579667    1.96622370410122
H         0.15203118260082   -6.29700863965118    2.13342586207673
H         1.82737952124503   -6.72734003536604    0.37260952134709
H         1.99921396059499   -5.19399249619348   -1.55519731386984
H         0.48986399061242   -3.24828780573366   -1.72134503684857
H        -0.47098964287033   -0.95505202269487    2.02812818212897
24
 energy: -34.218777892601 gnorm: 0.000535816372 xtb: 6.4.0 (f63f532)
C         0.52282922632344    0.58756859631246    0.92798891479081
C         0.80699639013128    1.06772238278051   -0.34244797058087
C         0.32675110865855    0.35428412153167   -1.42839249180448
N        -0.39029135332089   -0.75122828748174   -1.31464600421875
C        -0.66815357185636   -1.21252774949304   -0.10098308079882
C        -1.46254443077475   -2.48776112360686   -0.03054306934847
C        -0.53622467268340   -3.67206507065600    0.10241136282144
C        -0.61445253576857   -4.52892317238329    1.19134921072937
C         0.23531405661626   -5.61848407634372    1.29174132162345
C         1.17886655083215   -5.85692318264380    0.30773566986963
C         1.26855215339928   -5.00107535277112   -0.77871925232103
C         0.41583943101174   -3.91706669839238   -0.88046176767874
C        -0.22434048605358   -0.57039260505267    1.05278697904698
H         0.87751319522524    1.10962484814080    1.80527485501414
H         1.38427264118665    1.96770794874690   -0.48558028007900
H         0.51894264681415    0.67760283837817   -2.44387645743570
H        -2.03601732286479   -2.58465626274285   -0.95429209860137
H        -2.14666823783982   -2.45482422080163    0.81820129234135
H        -1.34836592597050   -4.35055763859170    1.96455196406317
H         0.15984319929633   -6.28179304517978    2.14149230063114
H         1.84081778027400   -6.70715969185734    0.38515358547819
H         2.00297074729880   -5.18185125186695   -1.55004063654063
H         0.47991176678738   -3.24783732789574   -1.72628587838472
H        -0.46413235672199   -0.97429397813171    2.02456153138263
24
 energy: -34.218801787755 gnorm: 0.000824549550 xtb: 6.4.0 (f63f532)
C         0.53757036659102    0.56290778152290    0.93073357742870
C         0.81684502618993    1.05303141947309   -0.33705374278866
C         0.31894601503330    0.35655984704802   -1.42653479114244
N        -0.40748985636550   -0.74359226102555   -1.31844667201734
C        -0.67890708594902   -1.21518068211418   -0.10724833521125
C        -1.47596882880758   -2.48909044578507   -0.04344072707853
C        -0.54611237532451   -3.66976303562489    0.09662803515455
C        -0.61733062832455   -4.51935502934506    1.19171704417539
C         0.24163301786452   -5.60101413466590    1.29994339040415
C         1.18711810036706   -5.83852980326657    0.31802248327386
C         1.26918756713035   -4.99040703961687   -0.77524814294097
C         0.40725885903865   -3.91461198663847   -0.88487621257143
C        -0.22043771962249   -0.58885427677729    1.04959030948982
H         0.90469373689762    1.07226697756573    1.81044725632832
H         1.40209721520715    1.94845957797316   -0.47550525000990
H         0.50574324813736    0.68857805247767   -2.44021113895399
H        -2.04227488145737   -2.58564941241673   -0.97143210902536
H        -2.16624568620295   -2.45677099999354    0.80036499866190
H        -1.35461892402296   -4.34296158988568    1.96255279521340
H         0.17061235153452   -6.25962070498503    2.15364618477312
H         1.85729034034466   -6.68166756550896    0.40270900527724
H         2.00729636335176   -5.16907386255623   -1.54400530093462
H         0.46720093746047   -3.24983317368659   -1.73451000350467
H        -0.45587715907084   -1.00073765216993    2.01913734599842
24
 energy: -34.218821225690 gnorm: 0.000950439602 xtb: 6.4.0 (f63f532)
C         0.55245747561187    0.53470976992748    0.93436599588121
C         0.82631700849556    1.03712532635152   -0.32983267275349
C         0.31088796815925    0.35995450982537   -1.42322368176551
N        -0.42559875896079   -0.73444415743839   -1.32235375290511
C        -0.68978479039016   -1.21871785840407   -0.11460356144138
C        -1.49062794562983   -2.49070324578256   -0.05919295933011
C        -0.55739703318306   -3.66754290342321    0.08880670653787
C        -0.62101825253590   -4.50764657339802    1.19157256522251
C         0.24845557818144   -5.58009982788373    1.30970274874812
C         1.19697763598761   -5.81728605431956    0.33033827538897
C         1.27056522650133   -4.97916776384447   -0.77130050426220
C         0.39793120137034   -3.91303135516704   -0.89097853847746
C        -0.21577774995975   -0.61082770017898    1.04586740164576
H         0.93403438149785    1.02865351403534    1.81716383844752
H         1.42142712243009    1.92713728482207   -0.46247754645509
H         0.49196498965230    0.70295575471128   -2.43424652222023
H        -2.04851201031515   -2.58626876063873   -0.99220784279781
H        -2.18792560347559   -2.45893743652077    0.77886092000486
H        -1.35867954096147   -4.33026973148228    1.96162962060419
H         0.18477581893323   -6.23083823521873    2.17013765680756
H         1.87552751516500   -6.65273891210549    0.42313382090136
H         2.00859467891387   -5.15884465058758   -1.53932240024450
H         0.45101423793351   -3.25576497439311   -1.74703725315425
H        -0.44737915342088   -1.03231601888850    2.01217768561690
24
 energy: -34.218832226756 gnorm: 0.000793448873 xtb: 6.4.0 (f63f532)
C         0.56037220683702    0.51836347391757    0.93725057504574
C         0.83067256256814    1.02906318027839   -0.32440582278695
C         0.30735877659236    0.36312817759633   -1.42020177302620
N        -0.43275173045283   -0.72891546554294   -1.32417947172650
C        -0.69438611562897   -1.22082779396858   -0.11921707100176
C        -1.49763677323568   -2.49159052992722   -0.06912632050195
C        -0.56269845018639   -3.66628937791614    0.08364266067435
C        -0.62121832661707   -4.49906303017007    1.19216886592271
C         0.25305059433519   -5.56662524100707    1.31631964794811
C         1.20080546556503   -5.80638110374904    0.33696816810893
C         1.26847128780004   -4.97616863266908   -0.77099781191248
C         0.39183326772383   -3.91454393573511   -0.89618549842852
C        -0.21316520875895   -0.62387539420347    1.04362126857751
H         0.94630328275535    1.00420314211481    1.82145617656154
H         1.42926923188653    1.91691606445131   -0.45328602661856
H         0.48504400315634    0.71356360342788   -2.42927354418112
H        -2.05054611128852   -2.58621503056216   -1.00507608407656
H        -2.19914816646884   -2.46035843026135    0.76541029714928
H        -1.35831864607334   -4.31943676876859    1.96220616899769
H         0.19439443685608   -6.21104643667803    2.18187280143783