93
 energy: -134.816834551361 gnorm: 0.075650925381 xtb: 6.4.1 (1a32961)
N        -0.96510000000000   -2.11530000000000   -0.24090000000000
C        -2.24700000000000   -1.69840000000000   -0.36220000000000
C        -3.14040000000000   -2.36820000000000   -1.21200000000000
C        -2.70220000000000   -3.47560000000000   -1.93050000000000
C        -1.37780000000000   -3.89880000000000   -1.78760000000000
C        -0.54290000000000   -3.18670000000000   -0.93510000000000
H         0.49810000000000   -3.45630000000000   -0.78940000000000
H        -0.99570000000000   -4.76030000000000   -2.32770000000000
H        -4.16500000000000   -2.02890000000000   -1.31830000000000
C        -2.62130000000000   -0.50950000000000    0.44100000000000
N        -1.62600000000000    0.07330000000000    1.16020000000000
C        -1.89680000000000    1.15240000000000    1.91690000000000
C        -3.17230000000000    1.70330000000000    1.99650000000000
C        -4.20510000000000    1.11740000000000    1.26270000000000
C        -3.92610000000000    0.00250000000000    0.47820000000000
H        -4.71960000000000   -0.46420000000000   -0.09520000000000
H        -3.34630000000000    2.57510000000000    2.62070000000000
H        -1.04450000000000    1.57420000000000    2.43690000000000
Ir        0.42150000000000   -0.81650000000000    0.91330000000000
H         0.87260000000000   -2.23030000000000    1.54050000000000
B         0.50670000000000    0.41560000000000   -0.81540000000000
O         0.19500000000000   -0.04700000000000   -2.09150000000000
C         0.00650000000000    1.10040000000000   -2.95430000000000
C         0.49020000000000    0.74740000000000   -4.35780000000000
H         1.51610000000000    0.37380000000000   -4.33700000000000
H         0.44730000000000    1.62240000000000   -5.01670000000000
H        -0.14740000000000   -0.03390000000000   -4.78430000000000
C        -1.50120000000000    1.39560000000000   -2.96670000000000
H        -1.75370000000000    2.21460000000000   -3.64850000000000
H        -2.03200000000000    0.49450000000000   -3.28930000000000
H        -1.85170000000000    1.65210000000000   -1.96220000000000
C         0.84230000000000    2.20670000000000   -2.22040000000000
O         0.75200000000000    1.78260000000000   -0.83690000000000
C         2.32930000000000    2.18620000000000   -2.59900000000000
H         2.74130000000000    1.18500000000000   -2.45750000000000
H         2.48870000000000    2.51300000000000   -3.63180000000000
H         2.87200000000000    2.86270000000000   -1.93200000000000
C         0.28440000000000    3.62290000000000   -2.33660000000000
H        -0.72650000000000    3.69040000000000   -1.92910000000000
H         0.92130000000000    4.31480000000000   -1.77610000000000
H         0.26430000000000    3.94810000000000   -3.38320000000000
B         1.56300000000000    0.60960000000000    1.84840000000000
O         2.92780000000000    0.55230000000000    2.15020000000000
C         3.36330000000000    1.88660000000000    2.50260000000000
C         4.53140000000000    1.78590000000000    3.47740000000000
H         4.27910000000000    1.16090000000000    4.33690000000000
H         5.39390000000000    1.33790000000000    2.97340000000000
H         4.82390000000000    2.77870000000000    3.83820000000000
C         3.79700000000000    2.56850000000000    1.19670000000000
H         4.20020000000000    3.57090000000000    1.37680000000000
H         4.56740000000000    1.95560000000000    0.72110000000000
H         2.95240000000000    2.63260000000000    0.50540000000000
C         2.05040000000000    2.50090000000000    3.09320000000000
O         1.03750000000000    1.81620000000000    2.31910000000000
C         1.89100000000000    4.00450000000000    2.88650000000000
H         1.87290000000000    4.25440000000000    1.82410000000000
H         0.94940000000000    4.34260000000000    3.33170000000000
H         2.71080000000000    4.55150000000000    3.36630000000000
C         1.82470000000000    2.13200000000000    4.56520000000000
H         1.92610000000000    1.05330000000000    4.71320000000000
H         2.52610000000000    2.65280000000000    5.22540000000000
H         0.80630000000000    2.41580000000000    4.84900000000000
B         2.27820000000000   -1.33090000000000    0.17410000000000
O         2.89460000000000   -2.57740000000000    0.38450000000000
C         4.26930000000000   -2.48200000000000   -0.07210000000000
C         5.10900000000000   -2.05380000000000    1.14010000000000
H         4.76350000000000   -1.08740000000000    1.51750000000000
H         4.98050000000000   -2.79470000000000    1.93590000000000
H         6.17420000000000   -1.99290000000000    0.89300000000000
C         4.71950000000000   -3.84660000000000   -0.58470000000000
H         4.75280000000000   -4.56130000000000    0.24420000000000
H         5.72330000000000   -3.78370000000000   -1.02010000000000
H         4.03500000000000   -4.23600000000000   -1.34170000000000
C         4.16440000000000   -1.36220000000000   -1.16300000000000
O         3.08520000000000   -0.55030000000000   -0.65400000000000
C         5.40720000000000   -0.48870000000000   -1.31550000000000
H         6.27320000000000   -1.09010000000000   -1.61530000000000
H         5.23300000000000    0.26930000000000   -2.08590000000000
H         5.64270000000000    0.02650000000000   -0.38240000000000
C         3.71800000000000   -1.89830000000000   -2.53110000000000
H         2.82530000000000   -2.52160000000000   -2.42740000000000
H         3.46090000000000   -1.05250000000000   -3.17550000000000
H         4.50570000000000   -2.48290000000000   -3.01790000000000
H        -3.38500000000000   -4.00130000000000   -2.59310000000000
H        -5.21400000000000    1.52080000000000    1.29960000000000
C         0.23590000000000   -1.68140000000000    2.96030000000000
N        -0.93127865561685   -2.11820279845682    3.49678138807944
C         1.18356191246769   -1.92232563017594    3.94450208795998
N        -0.80481476255345   -2.57362846662597    4.75282060537990
H        -1.84810266204894   -2.10746021489689    3.07552768712745
C         0.48706113965519   -2.46035544257184    5.03270719425698
H         2.23996213817505   -1.74264124826751    3.86088338069221
H         0.87020923962906   -2.79321313217616    5.98249315841892
93
 energy: -134.823223418644 gnorm: 0.048772330006 xtb: 6.4.1 (1a32961)
N        -0.96383584615129   -2.10303192063504   -0.24868415710785
C        -2.24130931377136   -1.69122238495686   -0.36497432956894
C        -3.13515627590837   -2.36194216029657   -1.20806602226949
C        -2.70426377223366   -3.46366400376464   -1.92324705423751
C        -1.38431876792893   -3.88211538831302   -1.78387824534578
C        -0.55471437699749   -3.16903371452048   -0.94032102539229
H         0.47908808655859   -3.44868239314240   -0.79056565000647
H        -1.00760231439395   -4.74198349316040   -2.31889453243775
H        -4.15558593190760   -2.02677284213548   -1.31203042500334
C        -2.61341570281167   -0.51443505413364    0.43563185718655
N        -1.62151374697900    0.06412862080808    1.14948499210593
C        -1.89832224237813    1.13696619581559    1.89539720320622
C        -3.16516630939370    1.68681797859672    1.98283862542968
C        -4.19657664073319    1.10282765658439    1.25622467848930
C        -3.91588943830932   -0.00386414538225    0.47547231726145
H        -4.70714052594347   -0.46693389428128   -0.09345782867781
H        -3.33945030192897    2.55023073498571    2.60914166941405
H        -1.05453671844561    1.55487542979064    2.42390661489527
Ir        0.42150000000000   -0.81650000000000    0.91330000000000
H         0.87260000000000   -2.23030000000000    1.54050000000000
B         0.49979818849227    0.41861122210607   -0.79287694890358
O         0.17648968139913   -0.03753321538897   -2.06403463466848
C         0.01055920662697    1.09577844681764   -2.94277197694792
C         0.48919628689983    0.74764303795902   -4.34811592636468
H         1.50824385700983    0.37113811023736   -4.32731897693797
H         0.44404806390230    1.62362075487255   -4.99578622444867
H        -0.14954983068434   -0.02807784080603   -4.76893002975389
C        -1.49353376673127    1.39848928477847   -2.96865698731323
H        -1.73160607694197    2.21173217032447   -3.65256103342877
H        -2.02375815480516    0.50176279733089   -3.28926185908823
H        -1.84021479242436    1.65344381803024   -1.96706638261885
C         0.83194356466434    2.20547915905753   -2.21085342204846
O         0.75722176176251    1.77569157158336   -0.83425209100084
C         2.31415967595591    2.19094565910789   -2.59934417287532
H         2.71944589466741    1.19214266279409   -2.45023189317186
H         2.46481549903545    2.51306274010046   -3.62899220397129
H         2.85626525577202    2.86583034575481   -1.93796594802394
C         0.27980017455846    3.62155616554768   -2.33729843306585
H        -0.72353760294821    3.69084596262845   -1.92522674292991
H         0.91938889228265    4.30557157347327   -1.78102838782331
H         0.26211985553047    3.93424149250114   -3.38148379026794
B         1.56692795123186    0.60893980123783    1.86830197808064
O         2.92841397106753    0.56229633996949    2.14001636526830
C         3.36394362128831    1.88539987573117    2.51051334396283
C         4.53411833874422    1.78962317080092    3.48073315907934
H         4.28236356834392    1.16111752054747    4.33086599407907
H         5.38913312363246    1.34558393898984    2.97275332396395
H         4.81590536118995    2.78021807654264    3.83660241264682
C         3.79857037265545    2.57309563450495    1.21167527907912
H         4.19940366327800    3.56898588411950    1.39581830017080
H         4.56296882891362    1.96230813015588    0.73439175665411
H         2.95022716307378    2.62535633625581    0.53055385571833
C         2.05355966606948    2.50343445800766    3.09046533061537
O         1.04185623069130    1.80449706762011    2.33851861895979
C         1.89332660382070    4.00543997263565    2.88912480266372
H         1.86789184036955    4.24913663411897    1.83085160570427
H         0.95605874613727    4.33446418920145    3.33617293398035
H         2.71366612882183    4.54192296853706    3.36523373082542
C         1.83246520433138    2.13970342131556    4.56259946430498
H         1.93507891883455    1.06392860871339    4.70008023889765
H         2.53352681988651    2.66123923116444    5.21163396685402
H         0.81784891602106    2.41753684438285    4.84729953357425
B         2.27820000000000   -1.33090000000000    0.17410000000000
O         2.90024146213090   -2.56192695531970    0.38892878786759
C         4.26524597266758   -2.48312154287746   -0.07864696987428
C         5.10999991688605   -2.05851673174986    1.12700013540790
H         4.75341547745121   -1.09895810775363    1.49909631644035
H         4.97893908680295   -2.79419429574434    1.91967398998963
H         6.16773563689034   -1.99822391719128    0.87502441370687
C         4.72039467615092   -3.84494084344645   -0.58898376267870
H         4.75031698144770   -4.54934355188399    0.24097477952755
H         5.71822419548547   -3.77279479837256   -1.02089482298132
H         4.03495954608727   -4.23255730258020   -1.33782843341294
C         4.16587641953078   -1.35957459243054   -1.15824474758736
O         3.07295869049604   -0.56341510140689   -0.66241276231708
C         5.40902148381568   -0.49111528600366   -1.31578155890957
H         6.26517443061643   -1.09688240257685   -1.61152177320408
H         5.23072216328052    0.26002296017762   -2.08407314771655
H         5.63682512879401    0.02317056245549   -0.38663997528128
C         3.72927817991552   -1.89861465339169   -2.52651420976886
H         2.83750817351375   -2.51446414561539   -2.41812650392706
H         3.47204130198077   -1.05702103419396   -3.16827414141737
H         4.51971744420784   -2.47533434982455   -3.00390679717117
H        -3.38336686676760   -3.98882216633591   -2.58086642609643
H        -5.20022308580130    1.50433913306438    1.29666466459358
C         0.23590000000001   -1.68140000000000    2.96030000000000
N        -0.93273376523006   -2.11337242491356    3.49266034312837
C         1.17848332451563   -1.91201781655873    3.95683236997832
N        -0.81337358510305   -2.55940093581395    4.75269104256177
H        -1.84572740634572   -2.10570991592667    3.06738311872115
C         0.47443579736066   -2.44372904728786    5.04037830425044
H         2.23215511731122   -1.72923343032312    3.88017823636730
H         0.84983558944012   -2.76953019917231    5.99296942639304
93
 energy: -134.825080190437 gnorm: 0.040460019599 xtb: 6.4.1 (1a32961)
N        -0.95823671267056   -2.09577031285606   -0.25752182222952
C        -2.23358867144488   -1.68532754033094   -0.36966355664674
C        -3.13208541366958   -2.35503206883723   -1.20749502595965
C        -2.70863137973561   -3.45407194101081   -1.92322599489567
C        -1.38910668928859   -3.87238988894823   -1.78718359944692
C        -0.56016764957737   -3.15967736357289   -0.94786056749038
H         0.47203594892636   -3.44343636514410   -0.80453989538408
H        -1.01730023814052   -4.73119226840256   -2.32079602905886
H        -4.15103669829973   -2.02089765387755   -1.30427338642026
C        -2.60267128514742   -0.51747445700990    0.42795686239356
N        -1.61350286432278    0.05656289894177    1.14307867199158
C        -1.89596715118540    1.12303017630378    1.88574608542244
C        -3.15861853418320    1.67339678643980    1.97631036778013
C        -4.19041424701346    1.09006323374045    1.25025643716098
C        -3.90595169225033   -0.01006561227856    0.46896390434833
H        -4.69473839634497   -0.47451363581362   -0.09757609205642
H        -3.33300415153378    2.53283416904906    2.60231397588764
H        -1.05700188311881    1.54517236221798    2.41543042141305
Ir        0.42150000000000   -0.81650000000000    0.91330000000000
H         0.87260000000000   -2.23030000000000    1.54050000000000
B         0.49870099834272    0.42614285463080   -0.77094686900765
O         0.15660799784995   -0.02944476277029   -2.03551570016818
C         0.00528851552626    1.09241785569202   -2.92281114689255
C         0.48885380774072    0.74098514129597   -4.32595793413762
H         1.50425722090303    0.36110621383454   -4.30663851024719
H         0.44337439578346    1.62070903553320   -4.96282997875066
H        -0.15371245230226   -0.02834847270044   -4.74593169739041
C        -1.49716271578254    1.40402762770156   -2.96724002878138
H        -1.71671816925441    2.21404012558661   -3.65607115580648
H        -2.02686446658259    0.51003403419918   -3.28930497645043
H        -1.84611778482678    1.66193202568177   -1.96954173563436
C         0.82369461051905    2.20347015855812   -2.19621327795574
O         0.76171180383540    1.77622382321702   -0.82482024831193
C         2.30304753720377    2.19577979276491   -2.59623437310780
H         2.70680760787829    1.19900296186237   -2.44128910979451
H         2.43931124954302    2.51160583293119   -3.62658897379865
H         2.84479264190919    2.87534382965144   -1.94305979893316
C         0.26837801498525    3.61800295697274   -2.32986003959948
H        -0.73071294310244    3.69288837420435   -1.91409920152086
H         0.91317353291118    4.30065550471393   -1.78314697803326
H         0.25085483792813    3.91430037866461   -3.37530328005342
B         1.57476179177935    0.61529343939665    1.87104732343889
O         2.92914712320463    0.57123970427475    2.13074254642720
C         3.36418949591839    1.88538174865227    2.51489210802279
C         4.53302751229848    1.79043614091636    3.48762298397876
H         4.28550019477612    1.15704394137180    4.33235359997194
H         5.38592252019624    1.35446503344775    2.97496000955663
H         4.80397803374416    2.78083972118376    3.84156768944535
C         3.80224364585892    2.58311222378011    1.22286789922195
H         4.19870764823713    3.57528658343263    1.41529829069008
H         4.56615624960251    1.97580199466489    0.74521087441918
H         2.95207613821944    2.62929853060426    0.54671351022054
C         2.05467943693147    2.50030267235495    3.09354308813623
O         1.04499561576189    1.79320590238835    2.35527259803404
C         1.89433803113279    4.00195064177871    2.88985573732993
H         1.86061512248785    4.24409411932928    1.83368391321878
H         0.96209487207829    4.32654496160275    3.34360359973768
H         2.71816113589697    4.53016718038569    3.36097433093791
C         1.84493640214455    2.14536642458432    4.57018985065394
H         1.95061558173697    1.07119258254747    4.70193152871149
H         2.54829496003484    2.67096881800025    5.20787250104985
H         0.83236623979256    2.41957327756874    4.85654128780977
B         2.27820000000000   -1.33090000000000    0.17410000000000
O         2.90222150483101   -2.54957817872129    0.39661850180220
C         4.25804535949447   -2.48062248009064   -0.08043585905963
C         5.11366003099870   -2.06024597922304    1.11852763447434
H         4.75177209876109   -1.10423558803279    1.48883967198142
H         4.98434581187423   -2.79514567385399    1.90857619940417
H         6.16543491619911   -2.00025777256793    0.85692178539283
C         4.71264076825851   -3.84165572152917   -0.59452383777810
H         4.74553901078835   -4.53988564283991    0.23660243075791
H         5.70631075671686   -3.75945377450668   -1.02534133311598
H         4.02734002219718   -4.23090466430819   -1.33900568980459
C         4.16103594695178   -1.35852470823946   -1.15751591816039
O         3.06054197621697   -0.57243337823428   -0.67059142373665
C         5.40520151871289   -0.49109499067051   -1.31063627869181
H         6.25359665528610   -1.10392171311069   -1.60112598507941
H         5.22802997435072    0.25347020243894   -2.08157107011189
H         5.62966132950390    0.02512018341219   -0.38454307337652
C         3.73926046270886   -1.90042997235579   -2.52995135950255
H         2.84882987206679   -2.51396892837528   -2.42114853031512
H         3.48558012193905   -1.06051890129083   -3.17177258282483
H         4.53628511633184   -2.47219062152036   -2.99448459064100
H        -3.38892547046501   -3.97984351439864   -2.57444152395367
H        -5.19260373001783    1.48715216368487    1.29490523165855
C         0.23590000000001   -1.68140000000000    2.96030000000000
N        -0.93699034760414   -2.10716202466516    3.48449982280800
C         1.16831658309528   -1.89551267092922    3.97361186281670
N        -0.83261501756083   -2.53406781906255    4.75295861269784
H        -1.84460005708182   -2.10634212244780    3.04952330357408
C         0.45048546953898   -2.41086600499585    5.05470929799109
H         2.22072563551855   -1.70836730160131    3.90773697453563
H         0.81356767331038   -2.72110363579037    6.01646554500756
93
 energy: -134.825929899798 gnorm: 0.040568385364 xtb: 6.4.1 (1a32961)
N        -0.95155920138760   -2.09410336903770   -0.26662317075894
C        -2.22727709997299   -1.68324111295910   -0.37461580893111
C        -3.13028539710425   -2.35171594322165   -1.20968378733013
C        -2.71224259934581   -3.45058467843914   -1.92720720120457
C        -1.39096130833823   -3.86886996908526   -1.79692259658821
C        -0.55876467173096   -3.15615480901410   -0.96077116528421
H         0.47330562133433   -3.44383500778816   -0.82256416221391
H        -1.02294427237300   -4.72799283818877   -2.33133528846955
H        -4.14897123838271   -2.01580414732746   -1.30072631129240
C        -2.59459693321922   -0.51985640797312    0.42362296951932
N        -1.60611488463110    0.05314497069305    1.14082297102210
C        -1.89153020160314    1.11855030489698    1.88225429549443
C        -3.15435095659328    1.66728691179596    1.97465231852386
C        -4.18686597403812    1.08245867578207    1.24828704584043
C        -3.89921380388305   -0.01413078286986    0.46487624605999
H        -4.68569549978876   -0.47941027253860   -0.10372469190204
H        -3.33002027961317    2.52402031888084    2.60262232557664
H        -1.05580034314827    1.54183429347599    2.41655357737472
Ir        0.42150000000000   -0.81650000000000    0.91330000000000
H         0.87260000000000   -2.23030000000000    1.54050000000000
B         0.48958140115623    0.43650037472157   -0.75254700969111
O         0.13500892934366   -0.02279901487499   -2.01199884219425
C        -0.00403582271434    1.09151897672686   -2.90447549632260
C         0.48601128020374    0.73206437719728   -4.30416534290495
H         1.49894003914730    0.34671069474875   -4.27980032354599
H         0.44690671982373    1.61263994399851   -4.93935439455821
H        -0.15967019739566   -0.03385883810319   -4.72483029896539
C        -1.50533443072613    1.41154609743245   -2.96461838816738
H        -1.71020017751919    2.21993012791243   -3.65901617232312
H        -2.03585786704305    0.51928140906628   -3.28903005972866
H        -1.86208619409990    1.67483804387040   -1.97139380021496
C         0.81494865122642    2.20474237643752   -2.18164665838777
O         0.76369424526795    1.78184015071137   -0.81228703004393
C         2.29242338503384    2.20103049220996   -2.59213265337476
H         2.69958040329068    1.20660136646518   -2.43214940726842
H         2.41777097808184    2.50993116090545   -3.62537539264298
H         2.83491021577279    2.88782484523920   -1.94760560177188
C         0.25657387088536    3.61854600371335   -2.32013259325790
H        -0.73982493134033    3.69599927707748   -1.89911971669781
H         0.90515199831995    4.30496956968200   -1.78312350550308
H         0.23334707691390    3.90337897145296   -3.36818856392929
B         1.57740258446408    0.61159537732673    1.88537886746392
O         2.93253052639044    0.57495798004569    2.12272170498437
C         3.36505013433517    1.88462742111744    2.51807498882740
C         4.53414681327041    1.78903811767027    3.49208133101878
H         4.29009067470227    1.14953211246004    4.33286718270065
H         5.38967420915335    1.36191510144906    2.97682873441667
H         4.79639484220732    2.77969284400429    3.85057940960364
C         3.80535626363670    2.59400390706431    1.23212412331240
H         4.19703367451221    3.58557108450115    1.43371494413635
H         4.57298657507771    1.99251237987937    0.75346660552562
H         2.95616768787498    2.64006032227723    0.55530551155059
C         2.05598524331205    2.49685338888442    3.10042093183302
O         1.04554570934444    1.78217791025644    2.37451489376465
C         1.89224003223264    3.99839217471106    2.89205794932064
H         1.84908579467988    4.23761216225711    1.83568553215379
H         0.96431973270933    4.32330802177055    3.35375615689998
H         2.72103017752880    4.52539734052700    3.35470966427789
C         1.85753646150607    2.15027381947352    4.58168362836593
H         1.96733023233926    1.07720753538329    4.71627832912348
H         2.56479323026127    2.68188492707714    5.20901873216180
H         0.84636235352561    2.42302875095959    4.87292856399218
B         2.27820000000000   -1.33090000000000    0.17410000000000
O         2.90401746949841   -2.54267316119993    0.40523132146049
C         4.25326827974926   -2.47891624021085   -0.08128884076064
C         5.11908360550969   -2.06087529010417    1.11227074137488
H         4.75785008131553   -1.10596661172187    1.48532671977364
H         4.99451931553569   -2.79717225485733    1.90129144266238
H         6.16779018171336   -2.00065193450245    0.84160137555072
C         4.70432901743932   -3.84117574255181   -0.59813079375998
H         4.74166120696234   -4.53819155386658    0.23335598871297
H         5.69536809117993   -3.75487936315068   -1.03282702598981
H         4.01618979093338   -4.23080140428405   -1.33939732630859
C         4.15629620633598   -1.35748192024159   -1.15888055535607
O         3.05006697283668   -0.57697391741021   -0.68034981135052
C         5.40045976598298   -0.48805861698061   -1.30651159895900
H         6.24818829598952   -1.10448957682614   -1.58972713092459
H         5.22720014191770    0.25272589514396   -2.08151234793968
H         5.61986007255459    0.03108496557452   -0.38119653605792
C         3.74806789873198   -1.90226608966159   -2.53537407939453
H         2.85845418139578   -2.51730205301570   -2.43265616675460
H         3.49956618263148   -1.06340194568633   -3.18017709793426
H         4.55209120623825   -2.47186688385044   -2.98903795259017
H        -3.39560549786017   -3.97594108201948   -2.57494224985618
H        -5.18984700262363    1.47604629908755    1.29523983025621
C         0.23590000000002   -1.68140000000000    2.96030000000000
N        -0.94339132161269   -2.09976873509966    3.47455562066158
C         1.15457272782500   -1.87475548562211    3.99161656609387
N        -0.85771814742436   -2.50223304285616    4.75334707115429
H        -1.84477193511122   -2.10852060853934    3.02632316848289
C         0.42074751048404   -2.37016324701972    5.07157744439083
H         2.20698452963814   -1.68402208422062    3.93825034929074
H         0.76933908754828   -2.65938889697164    6.04598303713263
93
 energy: -134.826903253684 gnorm: 0.040795216704 xtb: 6.4.1 (1a32961)
N        -0.94313160336443   -2.09431900559616   -0.27926839855414
C        -2.22008601743453   -1.68232542203629   -0.38192659072597
C        -3.12788289208722   -2.34960104211299   -1.21457856822446
C        -2.71531060846714   -3.44850333859323   -1.93502805550268
C        -1.39190558641196   -3.86693226901428   -1.81221699120720
C        -0.55464524994474   -3.15468127858225   -0.97924285779684
H         0.47869069952605   -3.44428190490100   -0.84986271888778
H        -1.02762976472779   -4.72582875073615   -2.35007745320247
H        -4.14675248589365   -2.01121399222584   -1.29901336825366
C        -2.58575813206400   -0.52214264836957    0.41890229437428
N        -1.59789451774245    0.04865030635070    1.14151872713072
C        -1.88597391626033    1.11385854729552    1.88385192630856
C        -3.14965721992984    1.66142152166594    1.97574795682777
C        -4.18231665804751    1.07632102810634    1.24687181036151
C        -3.89136207016128   -0.01640919652894    0.45968932503375
H        -4.67535213886621   -0.48186833423303   -0.11293919139993
H        -3.32677307024613    2.51652260846644    2.60565326648960
H        -1.05260463067364    1.53951924003331    2.42108934170841
Ir        0.42150000000000   -0.81650000000000    0.91330000000000
H         0.87260000000000   -2.23030000000000    1.54050000000000
B         0.48526318989333    0.45064878961295   -0.73047171985009
O         0.10520710339182   -0.01169574072009   -1.98188710810026
C        -0.02068711076322    1.09369550920635   -2.88039597319162
C         0.47891258589165    0.71830098008002   -4.27376421344561
H         1.48792401611662    0.32235039561214   -4.23654304140878
H         0.45448129279302    1.59566542535800   -4.91472784502463
H        -0.17094088712824   -0.04451757181733   -4.69458131008849
C        -1.52022718181207    1.42442049575580   -2.96045044825004
H        -1.70840333582108    2.23053247001796   -3.66253604959383
H        -2.05274321540847    0.53404477584223   -3.28759353525738
H        -1.88996124104393    1.69655315048693   -1.97391442886478
C         0.80271116713396    2.21022915185151   -2.16371790883914
O         0.76583563629803    1.79246375975190   -0.79553735491592
C         2.27787262977464    2.21108439923015   -2.58694587431331
H         2.69229502727103    1.22058424994494   -2.41889615090497
H         2.39100636227898    2.50874156735898   -3.62506076137002
H         2.82140902479311    2.90944259768695   -1.95509913289115
C         0.23806222274615    3.62235502783610   -2.30553106072303
H        -0.75419153698757    3.70075788312027   -1.87393014288539
H         0.89124791593253    4.31618689515389   -1.78272001369800
H         0.20157079488203    3.89615445554046   -3.35659894050069
B         1.58211981484794    0.61336489178304    1.88711329680723
O         2.93756220521528    0.58201770506337    2.10887657893285
C         3.36774466744383    1.88641491184179    2.52084425403533
C         4.53661931625483    1.78582668949756    3.49666337644759
H         4.29686409960001    1.13519021527038    4.33077711661961
H         5.39773355434455    1.37234043574045    2.97838490057728
H         4.78917950973302    2.77535133223796    3.86708294991919
C         3.81144001412986    2.61163732972591    1.24348108971252
H         4.19523086989482    3.60381915035851    1.45868506960882
H         4.58693514573001    2.02026766315277    0.76382998667068
H         2.96596900682327    2.66001767915231    0.56194012513578
C         2.05808986100118    2.49234313262900    3.11199010455353
O         1.04479941590540    1.76925047404781    2.40087823684898
C         1.88629356033114    3.99315125339671    2.89636233965510
H         1.82688583669731    4.22641260371334    1.83878926668446
H         0.96473218475691    4.31980359615316    3.37076513379168
H         2.72212840960983    4.52417526192625    3.34314621120266
C         1.87692380288287    2.15758408788940    4.59955394066783
H         1.99259211330694    1.08616947911284    4.74361633862004
H         2.58953413227795    2.69864861966134    5.21340955608642
H         0.86778052150866    2.42945611679321    4.89949784940635
B         2.27820000000000   -1.33090000000001    0.17410000000001
O         2.90836215392888   -2.53517434916217    0.41808369869758
C         4.25037859201127   -2.47737211293458   -0.08133165657585
C         5.13019140180185   -2.06213220606753    1.10468762715295
H         4.77306128083570   -1.10768869553061    1.48372449478321
H         5.01372825326053   -2.80086662396664    1.89322829593710
H         6.17595355281468   -2.00141747310062    0.82223899488187
C         4.69268929975608   -3.84285484357554   -0.60075167810109