      -----------------------------------------------------------      
     |                   =====================                   |     
     |                           x T B                           |     
     |                   =====================                   |     
     |                         S. Grimme                         |     
     |          Mulliken Center for Theoretical Chemistry        |     
     |                    University of Bonn                     |     
      -----------------------------------------------------------      

   * xtb version 6.4.1 (1a32961) compiled by 'knkr256@seskscpg007.prim.scp' on 2021-10-19

   xtb is free software: you can redistribute it and/or modify it under
   the terms of the GNU Lesser General Public License as published by
   the Free Software Foundation, either version 3 of the License, or
   (at your option) any later version.
   
   xtb is distributed in the hope that it will be useful,
   but WITHOUT ANY WARRANTY; without even the implied warranty of
   MERCHANTABILITY or FITNESS FOR A PARTICULAR PURPOSE.  See the
   GNU Lesser General Public License for more details.
   
   Cite this work as:
   * C. Bannwarth, E. Caldeweyher, S. Ehlert, A. Hansen, P. Pracht,
     J. Seibert, S. Spicher, S. Grimme, WIREs Comput. Mol. Sci., 2020, 11,
     e01493. DOI: 10.1002/wcms.1493
   
   for GFN2-xTB:
   * C. Bannwarth, S. Ehlert and S. Grimme., J. Chem. Theory Comput., 2019,
     15, 1652-1671. DOI: 10.1021/acs.jctc.8b01176
   for GFN1-xTB:
   * S. Grimme, C. Bannwarth, P. Shushkov, J. Chem. Theory Comput., 2017,
     13, 1989-2009. DOI: 10.1021/acs.jctc.7b00118
   for GFN0-xTB:
   * P. Pracht, E. Caldeweyher, S. Ehlert, S. Grimme, ChemRxiv, 2019, preprint.
     DOI: 10.26434/chemrxiv.8326202.v1
   for GFN-FF:
   * S. Spicher and S. Grimme, Angew. Chem. Int. Ed., 2020, 59, 15665-15673.
     DOI: 10.1002/anie.202004239
   
   for ALPB and GBSA implicit solvation:
   * S. Ehlert, M. Stahn, S. Spicher, S. Grimme, J. Chem. Theory Comput.,
     2021, 17, 4250-4261. DOI: 10.1021/acs.jctc.1c00471
   
   for DFT-D4:
   * E. Caldeweyher, C. Bannwarth and S. Grimme, J. Chem. Phys., 2017,
     147, 034112. DOI: 10.1063/1.4993215
   * E. Caldeweyher, S. Ehlert, A. Hansen, H. Neugebauer, S. Spicher,
     C. Bannwarth and S. Grimme, J. Chem. Phys., 2019, 150, 154122.
     DOI: 10.1063/1.5090222
   * E. Caldeweyher, J.-M. Mewes, S. Ehlert and S. Grimme, Phys. Chem. Chem. Phys.
     2020, 22, 8499-8512. DOI: 10.1039/D0CP00502A
   
   for sTDA-xTB:
   * S. Grimme and C. Bannwarth, J. Chem. Phys., 2016, 145, 054103.
     DOI: 10.1063/1.4959605
   
   in the mass-spec context:
   * V. Asgeirsson, C. Bauer and S. Grimme, Chem. Sci., 2017, 8, 4879.
     DOI: 10.1039/c7sc00601b
   * J. Koopman and S. Grimme, ACS Omega 2019, 4, 12, 15120-15133.
     DOI: 10.1021/acsomega.9b02011
   
   for metadynamics refer to:
   * S. Grimme, J. Chem. Theory Comput., 2019, 155, 2847-2862
     DOI: 10.1021/acs.jctc.9b00143
   
   for SPH calculations refer to:
   * S. Spicher and S. Grimme, J. Chem. Theory Comput., 2021, 17, 1701-1714
     DOI: 10.1021/acs.jctc.0c01306
   
   with help from (in alphabetical order)
   P. Atkinson, C. Bannwarth, F. Bohle, G. Brandenburg, E. Caldeweyher
   M. Checinski, S. Dohm, S. Ehlert, S. Ehrlich, I. Gerasimov, J. Koopman
   C. Lavigne, S. Lehtola, F. März, M. Müller, F. Musil, H. Neugebauer
   J. Pisarek, C. Plett, P. Pracht, J. Seibert, P. Shushkov, S. Spicher
   M. Stahn, M. Steiner, T. Strunk, J. Stückrath, T. Rose, and J. Unsleber
   
 * started run on 2022/01/14 at 13:45:44.890     

           -------------------------------------------------
          |                Calculation Setup                |
           -------------------------------------------------

          program call               : xtb xtbopt.xyz --sp --alpb thf -P 6
          hostname                   : seskscpg007.prim.scp
          coordinate file            : xtbopt.xyz
          omp threads                :                     6
          number of atoms            :                    94
          number of electrons        :                   254
          charge                     :                     0
          spin                       :                   0.0
          first test random number   :      0.51482799777779

   ID    Z sym.   atoms
    1    7 N      1, 11, 94
    2    6 C      2-6, 10, 12-15, 23, 24, 28, 32, 34, 38, 44, 45, 49, 53, 55,
                  59, 65, 66, 70, 74, 76, 80, 86, 88-91
    3    1 H      7-9, 16-18, 20, 25-27, 29-31, 35-37, 39-41, 46-48, 50-52,
                  56-58, 60-62, 67-69, 71-73, 77-79, 81-85, 92, 93
    4   77 Ir     19
    5    5 B      21, 42, 63
    6    8 O      22, 33, 43, 54, 64, 75
    7   16 S      87

molecular fragmentation (1/2 indicates fragments):
111111111111111111111111111111111111111111111111111111111111111111111111
1111111111111222222222
# atoms in fragment 1/2:    85     9
 fragment masses (1/2) :      730.32      108.14
CMA distance (Bohr)    :   8.004
constraining FC (au)   :  0.0500

           -------------------------------------------------
          |                 G F N 2 - x T B                 |
           -------------------------------------------------

        Reference                      10.1021/acs.jctc.8b01176
      * Hamiltonian:
        H0-scaling (s, p, d)           1.850000    2.230000    2.230000
        zeta-weighting                 0.500000
      * Dispersion:
        s8                             2.700000
        a1                             0.520000
        a2                             5.000000
        s9                             5.000000
      * Repulsion:
        kExp                           1.500000    1.000000
        rExp                           1.000000
      * Coulomb:
        alpha                          2.000000
        third order                    shell-resolved
        anisotropic                    true
        a3                             3.000000
        a5                             4.000000
        cn-shift                       1.200000
        cn-exp                         4.000000
        max-rad                        5.000000

      * Solvation model:               ALPB
        Solvent                        thf
        Parameter file                 internal GFN2-xTB/ALPB
        Dielectric constant                7.6000E+00
        Reference state                gsolv [1 M gas/solution]
        Free energy shift                  5.3248E-03 Eh       3.3414E+00 kcal/mol
        Temperature                        2.9815E+02 K
        Density                            8.8300E-01 kg/L
        Solvent mass                       7.2106E+01 g/mol
        Interaction kernel             P16
        Born radius scaling (c1)           1.7311E+00
        Born radii integrator          GBOBC
        Born offset                        0.0000E+00 a0       0.0000E+00 AA
        H-bond correction              true
        Ion screening                  false
        Surface tension                    1.0000E-05 Eh       1.5569E+01 dyn/cm
        Grid points                               230 per atom
q/qsh data taken from xtbrestart
CAMM data taken from xtbrestart

          ...................................................
          :                      SETUP                      :
          :.................................................:
          :  # basis functions                 247          :
          :  # atomic orbitals                 245          :
          :  # shells                          143          :
          :  # electrons                       254          :
          :  max. iterations                   250          :
          :  Hamiltonian                  GFN2-xTB          :
          :  restarted?                       true          :
          :  GBSA solvation                   true          :
          :  PC potential                    false          :
          :  electronic temp.          300.0000000     K    :
          :  accuracy                    1.0000000          :
          :  -> integral cutoff          0.2500000E+02      :
          :  -> integral neglect         0.1000000E-07      :
          :  -> SCF convergence          0.1000000E-05 Eh   :
          :  -> wf. convergence          0.1000000E-03 e    :
          :  Broyden damping             0.4000000          :
          ...................................................

 iter      E             dE          RMSdq      gap      omega  full diag
   1   -140.6963170 -0.140696E+03  0.178E-05    0.94       0.0  T
   2   -140.6963170  0.104308E-10  0.194E-05    0.94     532.0  T
   3   -140.6963170 -0.227658E-10  0.958E-06    0.94    1077.0  T

   *** convergence criteria satisfied after 3 iterations ***

         #    Occupation            Energy/Eh            Energy/eV
      -------------------------------------------------------------
         1        2.0000           -0.7189193             -19.5628
       ...           ...                  ...                  ...
       121        2.0000           -0.3823980             -10.4056
       122        2.0000           -0.3560629              -9.6890
       123        2.0000           -0.3381568              -9.2017
       124        2.0000           -0.3329345              -9.0596
       125        2.0000           -0.3283908              -8.9360
       126        2.0000           -0.3195574              -8.6956
       127        2.0000           -0.3173686              -8.6360 (HOMO)
       128                         -0.2828179              -7.6959 (LUMO)
       129                         -0.2555229              -6.9531
       130                         -0.2522992              -6.8654
       131                         -0.2467048              -6.7132
       132                         -0.2117090              -5.7609
       ...                                ...                  ...
       245                          3.7908596             103.1545
      -------------------------------------------------------------
                  HL-Gap            0.0345506 Eh            0.9402 eV
             Fermi-level           -0.3000480 Eh           -8.1647 eV

 SCC (total)                   0 d,  0 h,  0 min,  0.079 sec
 SCC setup                      ...        0 min,  0.003 sec (  3.532%)
 Dispersion                     ...        0 min,  0.002 sec (  2.752%)
 classical contributions        ...        0 min,  0.000 sec (  0.163%)
 integral evaluation            ...        0 min,  0.011 sec ( 13.504%)
 iterations                     ...        0 min,  0.032 sec ( 40.848%)
 molecular gradient             ...        0 min,  0.030 sec ( 38.418%)
 printout                       ...        0 min,  0.001 sec (  0.691%)

         :::::::::::::::::::::::::::::::::::::::::::::::::::::
         ::                     SUMMARY                     ::
         :::::::::::::::::::::::::::::::::::::::::::::::::::::
         :: total energy            -138.900791711024 Eh    ::
         :: total w/o Gsasa/hb      -138.861855281375 Eh    ::
         :: gradient norm              0.036047072859 Eh/a0 ::
         :: HOMO-LUMO gap              0.940170436839 eV    ::
         ::.................................................::
         :: SCC energy              -140.696316959302 Eh    ::
         :: -> isotropic ES            0.247345397744 Eh    ::
         :: -> anisotropic ES          0.009721788845 Eh    ::
         :: -> anisotropic XC          0.057974795799 Eh    ::
         :: -> dispersion             -0.136078377733 Eh    ::
         :: -> Gsolv                  -0.051602729910 Eh    ::
         ::    -> Gelec               -0.012666300261 Eh    ::
         ::    -> Gsasa               -0.041655325362 Eh    ::
         ::    -> Ghb                 -0.002605919731 Eh    ::
         ::    -> Gshift               0.005324815444 Eh    ::
         :: repulsion energy           1.787268063050 Eh    ::
         :: add. restraining           0.000000000000 Eh    ::
         :: total charge               0.000000000002 e     ::
         :::::::::::::::::::::::::::::::::::::::::::::::::::::

           -------------------------------------------------
          |                Property Printout                |
           -------------------------------------------------

    * Orbital Energies and Occupations

         #    Occupation            Energy/Eh            Energy/eV
      -------------------------------------------------------------
         1        2.0000           -0.7189193             -19.5628
       ...           ...                  ...                  ...
       115        2.0000           -0.4035325             -10.9807
       116        2.0000           -0.3956292             -10.7656
       117        2.0000           -0.3892238             -10.5913
       118        2.0000           -0.3877904             -10.5523
       119        2.0000           -0.3857336             -10.4963
       120        2.0000           -0.3836409             -10.4394
       121        2.0000           -0.3823980             -10.4056
       122        2.0000           -0.3560629              -9.6890
       123        2.0000           -0.3381568              -9.2017
       124        2.0000           -0.3329345              -9.0596
       125        2.0000           -0.3283908              -8.9360
       126        2.0000           -0.3195574              -8.6956
       127        2.0000           -0.3173686              -8.6360 (HOMO)
       128                         -0.2828179              -7.6959 (LUMO)
       129                         -0.2555229              -6.9531
       130                         -0.2522992              -6.8654
       131                         -0.2467048              -6.7132
       132                         -0.2117090              -5.7609
       133                         -0.2079079              -5.6575
       134                         -0.2072204              -5.6388
       135                         -0.1953037              -5.3145
       136                         -0.1779519              -4.8423
       137                         -0.1625005              -4.4219
       138                         -0.1322314              -3.5982
       ...                                ...                  ...
       245                          3.7908596             103.1545
      -------------------------------------------------------------
                  HL-Gap            0.0345506 Eh            0.9402 eV
             Fermi-level           -0.3000480 Eh           -8.1647 eV

     #   Z          covCN         q      C6AA      α(0)
     1   7 N        2.534    -0.119    23.616     7.217
     2   6 C        2.956     0.080    26.208     8.397
     3   6 C        2.918    -0.041    29.007     8.832
     4   6 C        2.924    -0.019    28.486     8.753
     5   6 C        2.915    -0.040    28.989     8.829
     6   6 C        2.894     0.051    26.860     8.497
     7   1 H        0.926     0.055     2.256     2.349
     8   1 H        0.926     0.063     2.169     2.303
     9   1 H        0.926     0.054     2.265     2.353
    10   6 C        2.954     0.076    26.291     8.410
    11   7 N        2.548    -0.120    23.638     7.221
    12   6 C        2.891     0.044    27.006     8.520
    13   6 C        2.915    -0.041    29.030     8.835
    14   6 C        2.923    -0.021    28.521     8.758
    15   6 C        2.919    -0.044    29.089     8.844
    16   1 H        0.926     0.056     2.247     2.344
    17   1 H        0.926     0.059     2.209     2.324
    18   1 H        0.926     0.080     1.982     2.202
    19  77 Ir       5.935    -0.147   387.159    36.386
    20   1 H        0.977     0.092     1.852     2.127
    21   5 B        2.637     0.404    15.978     6.747
    22   8 O        1.638    -0.402    20.905     6.172
    23   6 C        3.837     0.129    18.460     6.112
    24   6 C        3.755    -0.123    22.923     6.827
    25   1 H        0.925     0.055     2.257     2.349
    26   1 H        0.925     0.047     2.355     2.400
    27   1 H        0.925     0.054     2.276     2.359
    28   6 C        3.754    -0.112    22.706     6.795
    29   1 H        0.925     0.051     2.313     2.378
    30   1 H        0.925     0.045     2.385     2.415
    31   1 H        0.925     0.029     2.603     2.523
    32   6 C        3.844     0.131    18.437     6.108
    33   8 O        1.637    -0.402    20.892     6.170
    34   6 C        3.755    -0.123    22.912     6.825
    35   1 H        0.925     0.053     2.287     2.365
    36   1 H        0.925     0.048     2.341     2.392
    37   1 H        0.925     0.050     2.317     2.380
    38   6 C        3.754    -0.122    22.886     6.821
    39   1 H        0.925     0.048     2.343     2.394
    40   1 H        0.925     0.054     2.270     2.356
    41   1 H        0.925     0.048     2.348     2.396
    42   5 B        2.616     0.405    16.063     6.784
    43   8 O        1.637    -0.378    20.429     6.101
    44   6 C        3.832     0.129    18.471     6.115
    45   6 C        3.754    -0.127    22.994     6.837
    46   1 H        0.925     0.063     2.164     2.301
    47   1 H        0.925     0.054     2.266     2.354
    48   1 H        0.925     0.050     2.318     2.381
    49   6 C        3.755    -0.121    22.885     6.821
    50   1 H        0.925     0.051     2.306     2.375
    51   1 H        0.925     0.049     2.326     2.385
    52   1 H        0.925     0.052     2.299     2.371
    53   6 C        3.826     0.127    18.498     6.120
    54   8 O        1.637    -0.384    20.559     6.120
    55   6 C        3.755    -0.124    22.943     6.830
    56   1 H        0.925     0.053     2.282     2.362
    57   1 H        0.925     0.055     2.264     2.353
    58   1 H        0.925     0.050     2.316     2.380
    59   6 C        3.755    -0.122    22.889     6.822
    60   1 H        0.925     0.044     2.395     2.420
    61   1 H        0.925     0.052     2.293     2.368
    62   1 H        0.925     0.050     2.317     2.380
    63   5 B        2.631     0.405    15.998     6.757
    64   8 O        1.637    -0.384    20.559     6.120
    65   6 C        3.834     0.126    18.510     6.121
    66   6 C        3.755    -0.129    23.042     6.844
    67   1 H        0.925     0.058     2.221     2.331
    68   1 H        0.925     0.057     2.231     2.336
    69   1 H        0.925     0.051     2.309     2.376
    70   6 C        3.755    -0.129    23.029     6.843
    71   1 H        0.925     0.060     2.201     2.320
    72   1 H        0.925     0.052     2.294     2.368
    73   1 H        0.925     0.053     2.288     2.366
    74   6 C        3.831     0.127    18.503     6.120
    75   8 O        1.636    -0.377    20.412     6.098
    76   6 C        3.755    -0.125    22.962     6.833
    77   1 H        0.925     0.053     2.288     2.366
    78   1 H        0.925     0.055     2.254     2.348
    79   1 H        0.925     0.057     2.240     2.341
    80   6 C        3.755    -0.124    22.927     6.827
    81   1 H        0.925     0.041     2.440     2.443
    82   1 H        0.925     0.053     2.288     2.365
    83   1 H        0.925     0.056     2.241     2.341
    84   1 H        0.926     0.061     2.192     2.315
    85   1 H        0.926     0.059     2.210     2.325
    86   6 C        2.834    -0.022    28.533     8.754
    87  16 S        2.351    -0.042   142.802    20.113
    88   6 C        3.185    -0.018    27.990     8.633
    89   6 C        2.933    -0.035    28.871     8.812
    90   6 C        3.106    -0.043    28.926     8.812
    91   6 C        1.904     0.114    28.284     8.589
    92   1 H        0.926     0.049     2.338     2.391
    93   1 H        0.926     0.035     2.518     2.481
    94   7 N        0.911    -0.301    27.760     7.620

 Mol. C6AA /au·bohr⁶  :     101573.388878
 Mol. C8AA /au·bohr⁸  :    2807046.768915
 Mol. α(0) /au        :        495.476637


Wiberg/Mayer (AO) data.
largest (>0.10) Wiberg bond orders for each atom

 ---------------------------------------------------------------------------
     #   Z sym  total        # sym  WBO       # sym  WBO       # sym  WBO
 ---------------------------------------------------------------------------
     1   7 N    3.399 --     6 C    1.395     2 C    1.323    19 Ir   0.422
     2   6 C    3.978 --     3 C    1.359     1 N    1.323    10 C    1.079
     3   6 C    3.988 --     4 C    1.473     2 C    1.359     9 H    0.962
                             6 C    0.105
     4   6 C    3.983 --     3 C    1.473     5 C    1.396    84 H    0.968
     5   6 C    3.979 --     6 C    1.451     4 C    1.396     8 H    0.968
     6   6 C    3.977 --     5 C    1.451     1 N    1.395     7 H    0.957
                             3 C    0.105
     7   1 H    0.996 --     6 C    0.957
     8   1 H    0.995 --     5 C    0.968
     9   1 H    0.997 --     3 C    0.962
    10   6 C    3.978 --    15 C    1.362    11 N    1.317     2 C    1.079
    11   7 N    3.420 --    12 C    1.393    10 C    1.317    19 Ir   0.427
    12   6 C    3.972 --    13 C    1.448    11 N    1.393    18 H    0.946
                            15 C    0.105
    13   6 C    3.981 --    12 C    1.448    14 C    1.399    17 H    0.968
    14   6 C    3.983 --    15 C    1.470    13 C    1.399    85 H    0.968
    15   6 C    3.988 --    14 C    1.470    10 C    1.362    16 H    0.961
                            12 C    0.105
    16   1 H    0.996 --    15 C    0.961
    17   1 H    0.996 --    13 C    0.968
    18   1 H    0.993 --    12 C    0.946
    19  77 Ir   5.160 --    42 B    0.844    63 B    0.838    21 B    0.749
                            86 C    0.599    20 H    0.557    11 N    0.427
                             1 N    0.422
    20   1 H    0.990 --    19 Ir   0.557    86 C    0.337
    21   5 B    3.288 --    33 O    1.116    22 O    1.102    19 Ir   0.749
    22   8 O    2.201 --    21 B    1.102    23 C    0.939
    23   6 C    3.941 --    24 C    0.997    28 C    0.990    32 C    0.941
                            22 O    0.939
    24   6 C    3.993 --    23 C    0.997    26 H    0.983    27 H    0.983
                            25 H    0.982
    25   1 H    0.997 --    24 C    0.982
    26   1 H    0.997 --    24 C    0.983
    27   1 H    0.997 --    24 C    0.983
    28   6 C    3.996 --    23 C    0.990    31 H    0.985    29 H    0.984
                            30 H    0.984
    29   1 H    0.997 --    28 C    0.984
    30   1 H    0.998 --    28 C    0.984
    31   1 H    0.999 --    28 C    0.985
    32   6 C    3.938 --    38 C    0.997    34 C    0.991    23 C    0.941
                            33 O    0.936
    33   8 O    2.204 --    21 B    1.116    32 C    0.936
    34   6 C    3.993 --    32 C    0.991    36 H    0.983    37 H    0.982
                            35 H    0.981
    35   1 H    0.997 --    34 C    0.981
    36   1 H    0.997 --    34 C    0.983
    37   1 H    0.997 --    34 C    0.982
    38   6 C    3.994 --    32 C    0.997    41 H    0.983    39 H    0.983
                            40 H    0.983
    39   1 H    0.998 --    38 C    0.983
    40   1 H    0.997 --    38 C    0.983
    41   1 H    0.997 --    38 C    0.983
    42   5 B    3.344 --    43 O    1.142    54 O    1.107    19 Ir   0.844
    43   8 O    2.243 --    42 B    1.142    44 C    0.932
    44   6 C    3.932 --    45 C    0.996    49 C    0.992    53 C    0.937
                            43 O    0.932
    45   6 C    3.991 --    44 C    0.996    48 H    0.982    47 H    0.981
                            46 H    0.978
    46   1 H    0.996 --    45 C    0.978
    47   1 H    0.997 --    45 C    0.981
    48   1 H    0.996 --    45 C    0.982
    49   6 C    3.994 --    44 C    0.992    50 H    0.983    51 H    0.983
                            52 H    0.980
    50   1 H    0.996 --    49 C    0.983
    51   1 H    0.997 --    49 C    0.983
    52   1 H    0.997 --    49 C    0.980
    53   6 C    3.935 --    55 C    0.995    59 C    0.993    44 C    0.937
                            54 O    0.932
    54   8 O    2.227 --    42 B    1.107    53 C    0.932
    55   6 C    3.993 --    53 C    0.995    58 H    0.983    57 H    0.983
                            56 H    0.982
    56   1 H    0.997 --    55 C    0.982
    57   1 H    0.997 --    55 C    0.983
    58   1 H    0.996 --    55 C    0.983
    59   6 C    3.994 --    53 C    0.993    62 H    0.983    61 H    0.982
                            60 H    0.980
    60   1 H    0.998 --    59 C    0.980
    61   1 H    0.996 --    59 C    0.982
    62   1 H    0.997 --    59 C    0.983
    63   5 B    3.366 --    75 O    1.127    64 O    1.113    19 Ir   0.838
    64   8 O    2.227 --    63 B    1.113    65 C    0.933
    65   6 C    3.934 --    70 C    0.997    66 C    0.992    74 C    0.938
                            64 O    0.933
    66   6 C    3.991 --    65 C    0.992    69 H    0.983    68 H    0.981
                            67 H    0.978
    67   1 H    0.997 --    66 C    0.978
    68   1 H    0.996 --    66 C    0.981
    69   1 H    0.996 --    66 C    0.983
    70   6 C    3.992 --    65 C    0.997    72 H    0.983    73 H    0.982
                            71 H    0.982
    71   1 H    0.996 --    70 C    0.982
    72   1 H    0.996 --    70 C    0.983
    73   1 H    0.997 --    70 C    0.982
    74   6 C    3.933 --    76 C    0.996    80 C    0.992    65 C    0.938
                            75 O    0.932
    75   8 O    2.238 --    63 B    1.127    74 C    0.932
    76   6 C    3.992 --    74 C    0.996    77 H    0.983    78 H    0.982
                            79 H    0.982
    77   1 H    0.996 --    76 C    0.983
    78   1 H    0.997 --    76 C    0.982
    79   1 H    0.997 --    76 C    0.982
    80   6 C    3.994 --    74 C    0.992    81 H    0.984    83 H    0.983
                            82 H    0.983
    81   1 H    0.998 --    80 C    0.984
    82   1 H    0.997 --    80 C    0.983
    83   1 H    0.996 --    80 C    0.983
    84   1 H    0.995 --     4 C    0.968
    85   1 H    0.995 --    14 C    0.968
    86   6 C    3.879 --    88 C    1.440    87 S    1.183    19 Ir   0.599
                            20 H    0.337
    87  16 S    2.638 --    86 C    1.183    89 C    1.151
    88   6 C    3.973 --    86 C    1.440    90 C    1.189    91 C    1.125
    89   6 C    3.942 --    90 C    1.657    87 S    1.151    92 H    0.969
    90   6 C    3.984 --    89 C    1.657    88 C    1.189    93 H    0.964
    91   6 C    3.941 --    94 N    2.739    88 C    1.125
    92   1 H    0.995 --    89 C    0.969
    93   1 H    0.997 --    90 C    0.964
    94   7 N    2.980 --    91 C    2.739
 ---------------------------------------------------------------------------

Topologies differ in total number of bonds
Writing topology from bond orders to xtbtopo.mol

molecular dipole:
                 x           y           z       tot (Debye)
 q only:       -1.619       0.704      -2.238
   full:       -2.843       0.827      -2.346       9.601
molecular quadrupole (traceless):
                xx          xy          yy          xz          yz          zz
 q only:       10.190       6.183       5.331     -15.215      18.181     -15.521
  q+dip:        6.327       6.520       4.356     -17.447      20.317     -10.683
   full:        2.541       7.248       6.962     -19.599      17.242      -9.503


           -------------------------------------------------
          | TOTAL ENERGY             -138.900791711024 Eh   |
          | GRADIENT NORM               0.036047072859 Eh/α |
          | HOMO-LUMO GAP               0.940170436839 eV   |
           -------------------------------------------------

------------------------------------------------------------------------
 * finished run on 2022/01/14 at 13:45:44.999     
------------------------------------------------------------------------
 total:
 * wall-time:     0 d,  0 h,  0 min,  0.108 sec
 *  cpu-time:     0 d,  0 h,  0 min,  0.629 sec
 * ratio c/w:     5.805 speedup
 SCF:
 * wall-time:     0 d,  0 h,  0 min,  0.080 sec
 *  cpu-time:     0 d,  0 h,  0 min,  0.478 sec
 * ratio c/w:     5.954 speedup

