99
 energy: -139.565456134671 gnorm: 0.076082065900 xtb: 6.4.0 (f63f532)
N        -0.96510000000000   -2.11530000000000   -0.24090000000000
C        -2.24700000000000   -1.69840000000000   -0.36220000000000
C        -3.14040000000000   -2.36820000000000   -1.21200000000000
C        -2.70220000000000   -3.47560000000000   -1.93050000000000
C        -1.37780000000000   -3.89880000000000   -1.78760000000000
C        -0.54290000000000   -3.18670000000000   -0.93510000000000
H         0.49810000000000   -3.45630000000000   -0.78940000000000
H        -0.99570000000000   -4.76030000000000   -2.32770000000000
H        -4.16500000000000   -2.02890000000000   -1.31830000000000
C        -2.62130000000000   -0.50950000000000    0.44100000000000
N        -1.62600000000000    0.07330000000000    1.16020000000000
C        -1.89680000000000    1.15240000000000    1.91690000000000
C        -3.17230000000000    1.70330000000000    1.99650000000000
C        -4.20510000000000    1.11740000000000    1.26270000000000
C        -3.92610000000000    0.00250000000000    0.47820000000000
H        -4.71960000000000   -0.46420000000000   -0.09520000000000
H        -3.34630000000000    2.57510000000000    2.62070000000000
H        -1.04450000000000    1.57420000000000    2.43690000000000
Ir        0.42150000000000   -0.81650000000000    0.91330000000000
H         0.87260000000000   -2.23030000000000    1.54050000000000
B         0.50670000000000    0.41560000000000   -0.81540000000000
O         0.19500000000000   -0.04700000000000   -2.09150000000000
C         0.00650000000000    1.10040000000000   -2.95430000000000
C         0.49020000000000    0.74740000000000   -4.35780000000000
H         1.51610000000000    0.37380000000000   -4.33700000000000
H         0.44730000000000    1.62240000000000   -5.01670000000000
H        -0.14740000000000   -0.03390000000000   -4.78430000000000
C        -1.50120000000000    1.39560000000000   -2.96670000000000
H        -1.75370000000000    2.21460000000000   -3.64850000000000
H        -2.03200000000000    0.49450000000000   -3.28930000000000
H        -1.85170000000000    1.65210000000000   -1.96220000000000
C         0.84230000000000    2.20670000000000   -2.22040000000000
O         0.75200000000000    1.78260000000000   -0.83690000000000
C         2.32930000000000    2.18620000000000   -2.59900000000000
H         2.74130000000000    1.18500000000000   -2.45750000000000
H         2.48870000000000    2.51300000000000   -3.63180000000000
H         2.87200000000000    2.86270000000000   -1.93200000000000
C         0.28440000000000    3.62290000000000   -2.33660000000000
H        -0.72650000000000    3.69040000000000   -1.92910000000000
H         0.92130000000000    4.31480000000000   -1.77610000000000
H         0.26430000000000    3.94810000000000   -3.38320000000000
B         1.56300000000000    0.60960000000000    1.84840000000000
O         2.92780000000000    0.55230000000000    2.15020000000000
C         3.36330000000000    1.88660000000000    2.50260000000000
C         4.53140000000000    1.78590000000000    3.47740000000000
H         4.27910000000000    1.16090000000000    4.33690000000000
H         5.39390000000000    1.33790000000000    2.97340000000000
H         4.82390000000000    2.77870000000000    3.83820000000000
C         3.79700000000000    2.56850000000000    1.19670000000000
H         4.20020000000000    3.57090000000000    1.37680000000000
H         4.56740000000000    1.95560000000000    0.72110000000000
H         2.95240000000000    2.63260000000000    0.50540000000000
C         2.05040000000000    2.50090000000000    3.09320000000000
O         1.03750000000000    1.81620000000000    2.31910000000000
C         1.89100000000000    4.00450000000000    2.88650000000000
H         1.87290000000000    4.25440000000000    1.82410000000000
H         0.94940000000000    4.34260000000000    3.33170000000000
H         2.71080000000000    4.55150000000000    3.36630000000000
C         1.82470000000000    2.13200000000000    4.56520000000000
H         1.92610000000000    1.05330000000000    4.71320000000000
H         2.52610000000000    2.65280000000000    5.22540000000000
H         0.80630000000000    2.41580000000000    4.84900000000000
B         2.27820000000000   -1.33090000000000    0.17410000000000
O         2.89460000000000   -2.57740000000000    0.38450000000000
C         4.26930000000000   -2.48200000000000   -0.07210000000000
C         5.10900000000000   -2.05380000000000    1.14010000000000
H         4.76350000000000   -1.08740000000000    1.51750000000000
H         4.98050000000000   -2.79470000000000    1.93590000000000
H         6.17420000000000   -1.99290000000000    0.89300000000000
C         4.71950000000000   -3.84660000000000   -0.58470000000000
H         4.75280000000000   -4.56130000000000    0.24420000000000
H         5.72330000000000   -3.78370000000000   -1.02010000000000
H         4.03500000000000   -4.23600000000000   -1.34170000000000
C         4.16440000000000   -1.36220000000000   -1.16300000000000
O         3.08520000000000   -0.55030000000000   -0.65400000000000
C         5.40720000000000   -0.48870000000000   -1.31550000000000
H         6.27320000000000   -1.09010000000000   -1.61530000000000
H         5.23300000000000    0.26930000000000   -2.08590000000000
H         5.64270000000000    0.02650000000000   -0.38240000000000
C         3.71800000000000   -1.89830000000000   -2.53110000000000
H         2.82530000000000   -2.52160000000000   -2.42740000000000
H         3.46090000000000   -1.05250000000000   -3.17550000000000
H         4.50570000000000   -2.48290000000000   -3.01790000000000
H        -3.38500000000000   -4.00130000000000   -2.59310000000000
H        -5.21400000000000    1.52080000000000    1.29960000000000
C         0.23590000000000   -1.68140000000000    2.96030000000000
C        -1.03130347366459   -2.06016737299737    3.46373086542656
C         1.31275815171597   -1.91607305829215    3.82205754354357
C        -1.17517123273525   -2.47227215592736    4.78926025541707
C        -2.34417156605606   -2.15081504559239    2.73328415371720
C         1.17196106132874   -2.44040208076932    5.09908151207699
H         2.30973287982349   -1.73419880070635    3.44270246550524
C        -0.08928664438261   -2.70180737826950    5.61070696254784
H        -2.17423593411806   -2.69305107282302    5.14970477228498
H        -2.98271612409324   -2.90113515284580    3.20280235957214
H        -2.21561124867572   -2.45138186364451    1.69943954921006
H        -2.89217630106040   -1.20883870540370    2.78268669646764
H         2.04768033551956   -2.68948829734593    5.68439872541072
H        -0.23864122352189   -3.12436570410754    6.59601802397620
99
 energy: -139.575470117985 gnorm: 0.046895377380 xtb: 6.4.0 (f63f532)
N        -0.95230489337977   -2.06848102131769   -0.29760246854276
C        -2.22846835177609   -1.64853513766064   -0.42309415086660
C        -3.13229610109583   -2.34776197659498   -1.23235836405503
C        -2.70530891625389   -3.46328332122723   -1.92953789229299
C        -1.38520742909867   -3.88250357010067   -1.78785788165735
C        -0.55198586426771   -3.15818406520596   -0.95747182044384
H         0.47850349780202   -3.44525518592644   -0.79585433022780
H        -1.01036043572707   -4.74893461786760   -2.31420222017869
H        -4.15644792977716   -2.02095323629127   -1.32676964313793
C        -2.59494510053891   -0.45376911456073    0.35740016823501
N        -1.60226832306360    0.12188510895383    1.07443346444805
C        -1.88998319242638    1.16164653818306    1.86273622916376
C        -3.16340304529736    1.69364121901439    1.97518599126485
C        -4.19494713774351    1.11264296294360    1.24542703564232
C        -3.90830400081192    0.02481866900485    0.43941171385730
H        -4.70612498082708   -0.45461079903520   -0.10741452104839
H        -3.34218857959763    2.54492919571573    2.61808724511076
H        -1.05175711204079    1.56490089437602    2.41215120109687
Ir        0.42150000000000   -0.81649999999999    0.91330000000001
H         0.87260000000000   -2.23030000000000    1.54050000000000
B         0.49670607599959    0.42371150344530   -0.79275804620083
O         0.18002770593832   -0.03403701573465   -2.06590908043889
C         0.01327647961319    1.09834767009148   -2.94524268714084
C         0.49219308022129    0.74917766921917   -4.35053853383091
H         1.51132989737109    0.37264902212671   -4.32914760798588
H         0.44751688857203    1.62443910066070   -4.99939262540199
H        -0.14620665248083   -0.02705424786766   -4.77132977378860
C        -1.49148730153640    1.40019012333345   -2.97063471030927
H        -1.73153945951344    2.21348200907760   -3.65394098422170
H        -2.02173877637738    0.50315419704136   -3.29081885259789
H        -1.83851545873667    1.65448721318721   -1.96890188543165
C         0.83548076611620    2.20775630185171   -2.21344544241796
O         0.75837416404169    1.78036958902188   -0.83674785414958
C         2.31869889234451    2.19112801512683   -2.59949280752174
H         2.72303224680252    1.19182602802872   -2.45016353629020
H         2.47214133532143    2.51328640409167   -3.62880139572887
H         2.86073645877887    2.86490878753403   -1.93677067834223
C         0.28369950557415    3.62405845990804   -2.33918265304924
H        -0.72000359694851    3.69233590552986   -1.92753691804414
H         0.92254316137099    4.30750437006781   -1.78115594813477
H         0.26640874190426    3.93821669043346   -3.38296323565601
B         1.56308237015514    0.61020082538632    1.86666746465974
O         2.92516132067507    0.56183964755635    2.14120710181943
C         3.36280617817726    1.88426588237443    2.51078060601410
C         4.53257050996865    1.78722845920049    3.48183222364867
H         4.27948015986256    1.15940678992452    4.33214096835968
H         5.38770605375164    1.34222598011151    2.97469291265927
H         4.81579581975807    2.77753113734618    3.83769916346105
C         3.79890180037494    2.57117545538667    1.21151218233564
H         4.20055049894511    3.56703677466949    1.39470533389308
H         4.56321108428457    1.95977409584186    0.73459250183509
H         2.95149408013801    2.62434146745059    0.52918605919290
C         2.05274670329058    2.50313560182345    3.09096230320137
O         1.04085771890021    1.80720659703362    2.33727770957078
C         1.89408563015127    4.00558483533373    2.88999551811653
H         1.86992027189996    4.24953228197630    1.83166528646766
H         0.95620965518475    4.33522226051394    3.33552094038993
H         2.71392082944290    4.54225467653147    3.36698237755701
C         1.82997544774064    2.13803561083750    4.56300751934916
H         1.93096821198347    1.06197825779574    4.70067260769703
H         2.53043910515957    2.65875859524308    5.21358335859688
H         0.81520015210160    2.41666688036674    4.84650919581302
B         2.27820000000011   -1.33090000000001    0.17410000000006
O         2.90076787780225   -2.56236031224576    0.38996836249512
C         4.26571267250722   -2.48396923189671   -0.07672523506232
C         5.10919672542387   -2.05958724358087    1.13050153751758
H         4.75360388014520   -1.09935135999544    1.50230705297587
H         4.97729758937162   -2.79539716991021    1.92318919877681
H         6.16735012971464   -1.99957202200542    0.88011740682911
C         4.72009260941767   -3.84641499943202   -0.58680391356567
H         4.74884831573051   -4.55148947117035    0.24276590916428
H         5.71818791256653   -3.77569183789784   -1.01852931370342
H         4.03471081222213   -4.23330240950540   -1.33623304308651
C         4.16681106495108   -1.36077869465698   -1.15710722982062
O         3.07543634763613   -0.56345517075115   -0.66087560499534
C         5.41036038284548   -0.49248242205397   -1.31418185896527
H         6.26685456824780   -1.09780038641205   -1.61016428262697
H         5.23235104080001    0.25938368954359   -2.08196507974622
H         5.63805982465796    0.02150570222655   -0.38472427342033
C         3.72888338693386   -1.89929695765454   -2.52565476510715
H         2.83647250590367   -2.51452518798005   -2.41768764400215
H         3.47169285502999   -1.05739963915672   -3.16727116442309
H         4.51802554113486   -2.47685493270520   -3.00442384363097
H        -3.38640746438125   -3.99533130864162   -2.57974658525003
H        -5.20305502154377    1.50245096762852    1.30243322638906
C         0.23589999999995   -1.68139999999990    2.96030000000016
C        -1.02326272315288   -2.06975156645083    3.48090735283085
C         1.32235499763715   -1.89705835654305    3.82099993642087
C        -1.14929184857852   -2.47330871751115    4.80938016497467
C        -2.33675599099565   -2.17709122465209    2.75334304819082
C         1.19529762283434   -2.41289955330122    5.10172549025986
H         2.31492802614956   -1.70623023150389    3.43871399544882
C        -0.05808774544527   -2.68452347713715    5.62188647203746
H        -2.14208695968602   -2.70104233958891    5.17862332634483
H        -2.96613070856724   -2.93002517532710    3.22689511020603
H        -2.20200241121397   -2.48180434300747    1.72629964673780
H        -2.88883984263346   -1.23886455268281    2.79649184979714
H         2.07537220715948   -2.64681433748749    5.68421991943985
H        -0.19576808053303   -3.10068412826522    6.60999125727152
99
 energy: -139.579634083906 gnorm: 0.036148793287 xtb: 6.4.0 (f63f532)
N        -0.94248326502742   -2.04630845295364   -0.32283428886863
C        -2.21224149633859   -1.61791053896222   -0.45873944795865
C        -3.11956719201662   -2.31631541407383   -1.26224189115606
C        -2.70609894027104   -3.44053392538485   -1.94356987556944
C        -1.38823188812838   -3.86167662586303   -1.80075723572571
C        -0.55622543729598   -3.13515269611311   -0.97802841546405
H         0.46795943368400   -3.43507581667374   -0.81124386586152
H        -1.02378395475177   -4.73844385893552   -2.31020234947673
H        -4.14331099882592   -1.99440238094391   -1.34604848453213
C        -2.57710734566953   -0.44088493705512    0.32736001092566
N        -1.58852462604337    0.12342391243682    1.05237668546952
C        -1.88092248673584    1.16247667920174    1.82636804189181
C        -3.14878506749954    1.69388360181521    1.94427057355356
C        -4.18058957578632    1.11567906689925    1.21415395541112
C        -3.88775235789054    0.04151462030567    0.40109983852783
H        -4.68231159839445   -0.43655179357733   -0.14504129029171
H        -3.33343991830990    2.52358903689785    2.60852328689607
H        -1.05082274220643    1.56460043734253    2.38405252243707
Ir        0.42150000000000   -0.81649999999999    0.91330000000002
H         0.87260000000000   -2.23030000000000    1.54050000000001
B         0.51243829861684    0.43478990302133   -0.77168240129433
O         0.16866132678737   -0.02124440880036   -2.03673339264737
C         0.01600666328613    1.09761566541553   -2.92658623520799
C         0.49708194595988    0.74629477319549   -4.33107577855665
H         1.51196602196315    0.36644420376734   -4.31215434643631
H         0.45111830491229    1.62492826893067   -4.96869347046756
H        -0.14510890069881   -0.02336002609028   -4.75000077697497
C        -1.48702004329140    1.40808401878411   -2.97069562872977
H        -1.70912770349061    2.21749783115102   -3.65862577473966
H        -2.01631782039432    0.51393089623413   -3.29214317728702
H        -1.83562800416561    1.66412953405801   -1.97277384045881
C         0.83296367207286    2.20968156750177   -2.20092349234510
O         0.77053285707715    1.78505215612496   -0.82997851393669
C         2.31314150559516    2.19807684454885   -2.59769721804364
H         2.71262767375634    1.19995185038236   -2.44156814760266
H         2.45444360175363    2.51376306559509   -3.62680043345859
H         2.85477958843976    2.87420140472190   -1.94163429088219
C         0.27972065936987    3.62465026137275   -2.33562801993960
H        -0.71944376874673    3.69758659127236   -1.92098764399698
H         0.92306744138314    4.30487729943827   -1.78526876928568
H         0.26429606580412    3.92301187730675   -3.37988469997678
B         1.56614870664005    0.61217927698451    1.88040708806154
O         2.92346611146371    0.56946957106082    2.13520607518795
C         3.36178160842278    1.88158427096222    2.51791879886349
C         4.53030367322116    1.78510985432499    3.49090365457103
H         4.27915932168017    1.15322600774589    4.33487852129631
H         5.38183421003528    1.34629052254282    2.97950205999488
H         4.80340064019424    2.77477761324686    3.84352749396316
C         3.80261414061315    2.57706901954629    1.22558283052180
H         4.20116726655848    3.56826208370689    1.41603972544297
H         4.56499367489410    1.96769420982891    0.74890449258673
H         2.95327270566113    2.62332589681843    0.54894784971526
C         2.05354735602603    2.50046280189364    3.09412971437620
O         1.04366353786146    1.79618749540328    2.35642282570499
C         1.89682937044889    4.00277469778813    2.89248298052891
H         1.86618527985978    4.24468983708402    1.83670659572896
H         0.96349352147012    4.32758580478605    3.34255990029645
H         2.71938445268756    4.52958274387217    3.36611750947967
C         1.83891768352901    2.14324299461543    4.56972899114801
H         1.94074243117072    1.06865337579247    4.69921529386892
H         2.54085345525213    2.66636656446801    5.20991513537169
H         0.82624492756218    2.41868627693601    4.85267237189583
B         2.27820000000021   -1.33090000000003    0.17410000000013
O         2.90327076867306   -2.54937928553196    0.39785496248312
C         4.25843697970211   -2.48356368183585   -0.07728497217904
C         5.11121666759675   -2.06437366340745    1.12426939212169
H         4.74899473679381   -1.10803219450241    1.49265942993496
H         4.97792412053273   -2.79871436484571    1.91367287479964
H         6.16342655477923   -2.00554674215343    0.86672887608379
C         4.71294772355479   -3.84538295368585   -0.58946778567450
H         4.74177353958087   -4.54313955785582    0.24153332032278
H         5.70703124152547   -3.76541594504601   -1.01833515901361
H         4.02798830925888   -4.23281208762116   -1.33444235823642
C         4.16397694774029   -1.36076960048045   -1.15343814980629
O         3.06410925850115   -0.57406580072421   -0.66857111329071
C         5.40954922453109   -0.49552144911054   -1.30708160010066
H         6.25709024512251   -1.10840788342111   -1.59785221634730
H         5.23262001880721    0.24991067616648   -2.07654205277351
H         5.63314787326713    0.01933054777486   -0.38060631615929
C         3.74033591051621   -1.90223140435932   -2.52566178373867
H         2.84850167580151   -2.51308168365625   -2.41586746230599
H         3.48667636900922   -1.06201074733249   -3.16650575247149
H         4.53484562454451   -2.47495391261830   -2.99195600524958
H        -3.39332304461109   -3.98640136873460   -2.57091474043532
H        -5.19151371625948    1.48686223906520    1.29432702829690
C         0.23589999999990   -1.68139999999981    2.96030000000032
C        -1.01161302341030   -2.08107263230664    3.49417382765290
C         1.33629446837078   -1.86471411683032    3.81607475476979
C        -1.11623015751193   -2.47639618030838    4.82789531428914
C        -2.31536089925886   -2.18695678813487    2.74594689994054
C         1.23032803499867   -2.36377608409102    5.10380992526913
H         2.32198517088460   -1.65737711783766    3.42627496244313
C        -0.01437118768364   -2.65376427922254    5.63437009561252
H        -2.10050411733513   -2.71436929235207    5.21164580725048
H        -2.94212115873328   -2.94419374962622    3.21627843221319
H        -2.16537107006899   -2.48092686377584    1.71689576175703
H        -2.86761970265844   -1.24913033981507    2.78192379050714
H         2.11914036989869   -2.56749978253583    5.68464480886014
H        -0.13330019070029   -3.05492032697315    6.63093741643556
99
 energy: -139.582242567928 gnorm: 0.033781102795 xtb: 6.4.0 (f63f532)
N        -0.92902144960867   -2.02783741341988   -0.35281652581938
C        -2.19633874570934   -1.59135133458162   -0.49564014056179
C        -3.10924968599962   -2.28932222407463   -1.29480319300808
C        -2.70744681838902   -3.42576220152386   -1.96202914893629
C        -1.38950779513212   -3.85244728414483   -1.81790682069591
C        -0.55191881546402   -3.12139996400753   -1.00362636677508
H         0.47051184610128   -3.42875086158404   -0.83781999938400
H        -1.03348944441638   -4.73918943651087   -2.31521241808836
H        -4.12969788633261   -1.95808592519086   -1.38131508414523
C        -2.55647934963523   -0.41530634252895    0.28434053671361
N        -1.57069483296827    0.13965256626742    1.02251154663183
C        -1.86879795079046    1.17342372032587    1.80102044728103
C        -3.13875380736998    1.69823977571907    1.92613014288702
C        -4.17034589432988    1.12261654177477    1.18927689093680
C        -3.86871939677299    0.06621407726620    0.35643333670459
H        -4.65870027062624   -0.40796068664848   -0.19943650136095
H        -3.32647071699664    2.51806019571507    2.59969105268486
H        -1.04179621070346    1.58131859559939    2.35886631653147
Ir        0.42149999999999   -0.81649999999998    0.91330000000004
H         0.87260000000000   -2.23029999999999    1.54050000000001
B         0.50633289463814    0.45239471287909   -0.75207579727043
O         0.15521223459475   -0.01000207055647   -2.01275671671712
C         0.01330677581225    1.10026245352713   -2.90776273814880
C         0.50191494117235    0.74036199604617   -4.30863609494322
H         1.51490039104389    0.35524273489371   -4.28742125986686
H         0.46070245285815    1.62108163356494   -4.94320088696036
H        -0.14462533444437   -0.02514990359310   -4.72864500133728
C        -1.48894379423473    1.41836722446086   -2.96912006469614
H        -1.69484697667995    2.22642101811051   -3.66329319509253
H        -2.01833952463512    0.52546650329432   -3.29389564667719
H        -1.84623627178972    1.68031130503805   -1.97585353490294
C         0.83233495792784    2.21414189969886   -2.18672427608246
O         0.77947946335240    1.79693997202178   -0.81710422660980
C         2.31078494537763    2.20456294902415   -2.59442666880235
H         2.71148525219569    1.20759361396447   -2.43361963798544
H         2.44109618851865    2.51331282510994   -3.62674627009328
H         2.85393149840718    2.88732367600754   -1.94652806266199
C         0.27586513082627    3.62831356161823   -2.32832894499061
H        -0.72200982836959    3.70556272725752   -1.91108905831155
H         0.92300545087674    4.31273981459368   -1.78757895820041
H         0.25736361671967    3.91335770070843   -3.37604549732268
B         1.56863968006446    0.61314038574531    1.88682154248958
O         2.92434339211001    0.57215580899597    2.12923236378648
C         3.36165990188545    1.87869109758655    2.52272349373831
C         4.52836298160004    1.77957987273855    3.49969623479476
H         4.27919232038158    1.14237914959334    4.34035331204742
H         5.38244966070078    1.34820334754553    2.98609791237995
H         4.79400416873738    2.76970264947324    3.85607178575288
C         3.80706296903323    2.58456530893116    1.23628527772383
H         4.20198026567341    3.57485081989650    1.43621689961535
H         4.57278604243753    1.97904323230474    0.75982164174640
H         2.95873867170660    2.63168956506908    0.55860401171406
C         2.05388996735896    2.49554742727834    3.10206882812283
O         1.04372713620017    1.78717515529355    2.37368026385337
C         1.89696783823478    3.99837825710125    2.89610950953416
H         1.85980467558653    4.23973452144453    1.84017308316902
H         0.96749959076678    4.32452379619148    3.35322086651579
H         2.72471396494570    4.52157122344417    3.36413601736996
C         1.84902431633191    2.14609542659113    4.58232374768938
H         1.95315754035627    1.07195563051590    4.71268447636503
H         2.55457845311022    2.67376323903331    5.21422912352844
H         0.83709857955616    2.42133275229539    4.86768349041796
B         2.27820000000033   -1.33090000000004    0.17410000000021
O         2.90334510864088   -2.54325377239904    0.40736398682053
C         4.25208643372372   -2.48284297912921   -0.07524034478768
C         5.11500821360432   -2.06706755504579    1.12181576514700
H         4.75388181058860   -1.11107173960861    1.49205677684862
H         4.98428128557856   -2.80326965653976    1.90983219163537
H         6.16474135784488   -2.00927567550319    0.85616753241433
C         4.70255109283577   -3.84619618898347   -0.59071095588632
H         4.73476049371476   -4.54257324954896    0.24123361830753
H         5.69518325035215   -3.76190053186336   -1.02135964939681
H         4.01633431823291   -4.23454431645737   -1.33421142971549
C         4.15967493151558   -1.36160239239723   -1.15313577109736
O         3.05549729509134   -0.57880759936626   -0.67694610288863
C         5.40668835919634   -0.49569665838099   -1.29929393967603
H         6.25212911367470   -1.11447594779047   -1.58314692098852
H         5.23534399269555    0.24632412000542   -2.07328372634031
H         5.62711295671643    0.02161891728800   -0.37333518506852
C         3.75005693414753   -1.90574101963292   -2.52988468475967
H         2.85848384689364   -2.51753645166659   -2.42521350451569
H         3.50256588537419   -1.06583450215867   -3.17372838394290
H         4.55154724888084   -2.47748192120969   -2.98457434339511
H        -3.40188607643531   -3.97955305332761   -2.57435965342184
H        -5.18366021780178    1.48319113316034    1.27924347092120
C         0.23589999999984   -1.68139999999969    2.96030000000052
C        -0.99776382124354   -2.09278139630012    3.50792699722134
C         1.35083538568858   -1.82547945168949    3.80787940681808
C        -1.08309494514419   -2.47797619463482    4.84585072583171
C        -2.29456191278910   -2.20904663285679    2.75174150035675
C         1.26704759535347   -2.30125987086270    5.10551893838280
H         2.32854316686097   -1.60124348343915    3.40620585245235
C         0.03124833457989   -2.61460109989405    5.64709608562486
H        -2.05843313229937   -2.73512380075369    5.24172343612713
H        -2.92149429440932   -2.96901951423586    3.21715293596021
H        -2.12653427016080   -2.49930718035861    1.72305884356857
H        -2.84854830994221   -1.27163060017704    2.77778436840662
H         2.16595655432691   -2.46687757187806    5.68600961182084
H        -0.06692828011419   -2.99855536288438    6.65355852052907
99
 energy: -139.584397063931 gnorm: 0.033024802936 xtb: 6.4.0 (f63f532)
N        -0.91844995734867   -2.02411954275377   -0.36894239785800
C        -2.18268861035047   -1.57655253030479   -0.52073947378844
C        -3.09654914835868   -2.26450358983354   -1.32869192387147
C        -2.70521759556974   -3.41131179564545   -1.98397128852047
C        -1.38933708789968   -3.84739479455494   -1.83524545144020
C        -0.54622224726556   -3.11763643350118   -1.02399864628998
H         0.47678506518274   -3.42771628439269   -0.86471302031702
H        -1.03992478305405   -4.73999528674609   -2.32662470036265
H        -4.11078787564083   -1.91581171110385   -1.42837294044751
C        -2.54020962898539   -0.40229348568371    0.25964268755908
N        -1.55727472626262    0.14380439324412    1.01255641050507
C        -1.85660775115250    1.18470744983262    1.78370701748782
C        -3.12759166938289    1.70764393403932    1.90563981318014
C        -4.15713826264686    1.13644319763146    1.15929059484128
C        -3.84983848885240    0.09133719444683    0.31565040888317
H        -4.63190726028054   -0.36726133238885   -0.26571227077278
H        -3.31780355499149    2.52101861886214    2.58544305218489
H        -1.03115435589965    1.59724194992017    2.34179378647926
Ir        0.42149999999999   -0.81649999999997    0.91330000000005
H         0.87260000000000   -2.23029999999999    1.54050000000001
B         0.51224443524117    0.46871735721005   -0.73386201269633
O         0.14104939447973    0.00252443560983   -1.98786994565581
C         0.00841632422176    1.10558676425864   -2.88756127368769
C         0.50332689675232    0.73293072060133   -4.28387038362504
H         1.51337816469522    0.33908494164608   -4.25353131291881
H         0.47371214373865    1.61124293160806   -4.92373276934617
H        -0.14707946991284   -0.03025734928448   -4.70385497770984
C        -1.49227737498811    1.43227681229808   -2.96500658703582
H        -1.68469914230881    2.23844524771548   -3.66610334793221
H        -2.02314825089412    0.54067761289706   -3.29249261274262
H        -1.86189323564588    1.70215857692595   -1.97769775243086
C         0.83127885655801    2.22298591627556   -2.17246768728974
O         0.78956815743287    1.81087188035433   -0.80245748629145
C         2.30772099255664    2.21504800238898   -2.59075191932078
H         2.71337643922482    1.22051446759930   -2.42437422501198
H         2.42821275278271    2.51476055480278   -3.62745926523138
H         2.85345634999469    2.90659981973312   -1.95340751636847
C         0.27056489992176    3.63583611402853   -2.31956039542891
H        -0.72535601876335    3.71473224219155   -1.89643014320411
H         0.92027777464472    4.32802116354574   -1.79030228097452
H         0.24313381907120    3.91076456219443   -3.37066629823573
B         1.56956267285988    0.61162386924395    1.89329916777964
O         2.92741975121387    0.57442765150019    2.12057073138754
C         3.36368445998090    1.87648986579668    2.52808700826741
C         4.52916914680914    1.77131617631633    3.50745122981667
H         4.28077819217325    1.12571543987801    4.34283502566391