107
 energy: -152.607758359656 gnorm: 0.000275083650 xtb: 6.4.0 (f63f532)
N        -0.96510000000001   -2.11529999999995   -0.24089999999998
C        -2.24700000000000   -1.69840000000001   -0.36220000000003
C        -3.14039999999999   -2.36820000000002   -1.21200000000010
C        -2.70220000000002   -3.47559999999996   -1.93050000000000
C        -1.37780000000003   -3.89879999999999   -1.78759999999995
C        -0.54289999999998   -3.18670000000003   -0.93509999999998
H         0.49809999999999   -3.45630000000000   -0.78940000000000
H        -0.99569999999999   -4.76030000000002   -2.32770000000001
H        -4.16500000000000   -2.02890000000000   -1.31830000000000
C        -2.62129999999999   -0.50950000000001    0.44100000000001
N        -1.62600000000000    0.07330000000000    1.16020000000000
C        -1.89680000000000    1.15240000000000    1.91690000000000
C        -3.17230000000000    1.70329999999999    1.99649999999999
C        -4.20510000000000    1.11740000000000    1.26270000000001
C        -3.92610000000000    0.00250000000000    0.47820000000000
H        -4.71960000000000   -0.46420000000000   -0.09520000000000
H        -3.34630000000000    2.57509999999999    2.62070000000000
H        -1.04450000000000    1.57419999999998    2.43690000000000
Ir        0.42150000000000   -0.81650000000000    0.91330000000000
H         0.87260000000000   -2.23030000000000    1.54050000000000
B         0.50670000000000    0.41560000000001   -0.81540000000000
O         0.19500000000000   -0.04699999999999   -2.09150000000003
C         0.00650000000002    1.10039999999999   -2.95429999999996
C         0.49020000000001    0.74740000000005   -4.35780000000000
H         1.51609999999997    0.37380000000001   -4.33700000000000
H         0.44729999999999    1.62239999999999   -5.01669999999999
H        -0.14740000000001   -0.03389999999998   -4.78430000000000
C        -1.50120000000001    1.39560000000002   -2.96670000000001
H        -1.75369999999999    2.21460000000005   -3.64850000000001
H        -2.03200000000002    0.49449999999997   -3.28930000000001
H        -1.85169999999999    1.65210000000000   -1.96220000000000
C         0.84229999999997    2.20669999999995   -2.22039999999998
O         0.75200000000000    1.78260000000000   -0.83689999999995
C         2.32930000000001    2.18619999999993   -2.59899999999998
H         2.74129999999999    1.18500000000002   -2.45749999999999
H         2.48869999999999    2.51300000000000   -3.63179999999994
H         2.87200000000001    2.86270000000002   -1.93200000000001
C         0.28440000000004    3.62289999999993   -2.33659999999999
H        -0.72649999999999    3.69040000000000   -1.92910000000000
H         0.92129999999998    4.31480000000001   -1.77610000000002
H         0.26430000000000    3.94810000000000   -3.38319999999997
B         1.56299999999999    0.60960000000003    1.84839999999997
O         2.92780000000000    0.55230000000001    2.15020000000001
C         3.36329999999998    1.88659999999997    2.50259999999998
C         4.53140000000001    1.78589999999997    3.47739999999999
H         4.27910000000000    1.16090000000001    4.33690000000000
H         5.39390000000001    1.33790000000001    2.97340000000002
H         4.82390000000000    2.77870000000001    3.83820000000000
C         3.79700000000001    2.56849999999999    1.19670000000010
H         4.20020000000000    3.57090000000000    1.37680000000001
H         4.56739999999999    1.95559999999999    0.72110000000003
H         2.95240000000001    2.63260000000000    0.50540000000004
C         2.05039999999999    2.50090000000006    3.09320000000008
O         1.03750000000000    1.81620000000002    2.31910000000000
C         1.89100000000003    4.00449999999999    2.88649999999999
H         1.87290000000000    4.25440000000001    1.82410000000000
H         0.94939999999999    4.34260000000000    3.33169999999998
H         2.71080000000002    4.55150000000001    3.36630000000006
C         1.82469999999997    2.13200000000008    4.56520000000003
H         1.92610000000000    1.05330000000001    4.71320000000000
H         2.52610000000003    2.65280000000003    5.22540000000001
H         0.80630000000001    2.41579999999999    4.84899999999998
B         2.27820000000000   -1.33089999999999    0.17410000000000
O         2.89459999999999   -2.57740000000000    0.38450000000000
C         4.26930000000000   -2.48200000000001   -0.07210000000001
C         5.10899999999999   -2.05380000000001    1.14009999999998
H         4.76350000000000   -1.08740000000000    1.51750000000000
H         4.98049999999999   -2.79470000000001    1.93590000000000
H         6.17420000000000   -1.99290000000001    0.89300000000001
C         4.71950000000000   -3.84660000000003   -0.58469999999998
H         4.75280000000000   -4.56130000000000    0.24420000000001
H         5.72330000000000   -3.78370000000000   -1.02010000000002
H         4.03499999999999   -4.23600000000001   -1.34169999999999
C         4.16440000000001   -1.36220000000002   -1.16300000000002
O         3.08520000000000   -0.55030000000001   -0.65400000000000
C         5.40719999999999   -0.48870000000000   -1.31549999999999
H         6.27320000000000   -1.09010000000000   -1.61530000000000
H         5.23300000000000    0.26930000000000   -2.08590000000000
H         5.64270000000000    0.02650000000000   -0.38239999999999
C         3.71800000000003   -1.89829999999996   -2.53110000000000
H         2.82530000000000   -2.52159999999998   -2.42740000000000
H         3.46089999999999   -1.05250000000002   -3.17549999999998
H         4.50570000000000   -2.48289999999999   -3.01789999999999
H        -3.38499999999999   -4.00130000000000   -2.59309999999997
H        -5.21400000000001    1.52079999999997    1.29960000000000
C         0.23590000000002   -1.68140000000000    2.96030000000001
C        -0.95706151926167   -2.19275251358320    3.41752131343428
C         1.07550058378984   -1.58568058563077    4.09679588689677
N        -0.89395013137776   -2.35646095832415    4.77234102102900
H        -1.85461586765826   -2.45516680936332    2.88380148452661
C         0.35331101523968   -1.99391409884499    5.18813106364258
H         2.09862282546586   -1.25363536030851    4.09037941978436
C        -1.91284220185098   -3.00006507970735    5.57281083655960
H         0.62787234219792   -2.04805542239071    6.22766890325919
C        -2.02190538571308   -4.46908359185011    5.23995769551976
H        -1.64283165361556   -2.87681024598837    6.62693414022030
H        -2.87576912450279   -2.50731959180734    5.40013610670073
C        -0.87303645985823   -5.25472692587008    5.17459013941675
C        -3.25696710957456   -5.05726030048658    4.98051021843465
C        -0.95848260412465   -6.60158607833738    4.85564155989527
H         0.09293975319580   -4.80211257477991    5.36139374842945
C        -3.34247306119695   -6.40576496368987    4.66499969711158
H        -4.15749823172120   -4.45652399885665    5.02409347373457
C        -2.19362682635924   -7.18007393390272    4.60122372645307
H        -0.05800450332745   -7.19999123177004    4.80549812489954
H        -4.30851324563656   -6.85115692932994    4.46392388067657
H        -2.26033487803491   -8.23092174765478    4.35023555914659
