      -----------------------------------------------------------      
     |                   =====================                   |     
     |                           x T B                           |     
     |                   =====================                   |     
     |                         S. Grimme                         |     
     |          Mulliken Center for Theoretical Chemistry        |     
     |                    University of Bonn                     |     
      -----------------------------------------------------------      

   * xtb version 6.4.0 (f63f532) compiled by 'knkr256@seskscpg008.prim.scp' on 2021-04-09

   xtb is free software: you can redistribute it and/or modify it under
   the terms of the GNU Lesser General Public License as published by
   the Free Software Foundation, either version 3 of the License, or
   (at your option) any later version.
   
   xtb is distributed in the hope that it will be useful,
   but WITHOUT ANY WARRANTY; without even the implied warranty of
   MERCHANTABILITY or FITNESS FOR A PARTICULAR PURPOSE.  See the
   GNU Lesser General Public License for more details.
   
   Cite this work as:
   * C. Bannwarth, E. Caldeweyher, S. Ehlert, A. Hansen, P. Pracht,
     J. Seibert, S. Spicher, S. Grimme, WIREs Comput. Mol. Sci., 2020, 11,
     e01493. DOI: 10.1002/wcms.1493
   
   for GFN2-xTB:
   * C. Bannwarth, S. Ehlert and S. Grimme., J. Chem. Theory Comput., 2019,
     15, 1652-1671. DOI: 10.1021/acs.jctc.8b01176
   for GFN1-xTB:
   * S. Grimme, C. Bannwarth, P. Shushkov, J. Chem. Theory Comput., 2017,
     13, 1989-2009. DOI: 10.1021/acs.jctc.7b00118
   for GFN0-xTB:
   * P. Pracht, E. Caldeweyher, S. Ehlert, S. Grimme, ChemRxiv, 2019, preprint.
     DOI: 10.26434/chemrxiv.8326202.v1
   for GFN-FF:
   * S. Spicher and S. Grimme, Angew. Chem. Int. Ed., 2020, 59, 15665-15673.
     DOI: 10.1002/anie.202004239
   
   for DFT-D4:
   * E. Caldeweyher, C. Bannwarth and S. Grimme, J. Chem. Phys., 2017,
     147, 034112. DOI: 10.1063/1.4993215
   * E. Caldeweyher, S. Ehlert, A. Hansen, H. Neugebauer, S. Spicher,
     C. Bannwarth and S. Grimme, J. Chem. Phys., 2019, 150, 154122.
     DOI: 10.1063/1.5090222
   * E. Caldeweyher, J.-M. Mewes, S. Ehlert and S. Grimme, Phys. Chem. Chem. Phys.
     2020, 22, 8499-8512. DOI: 10.1039/D0CP00502A
   
   for sTDA-xTB:
   * S. Grimme and C. Bannwarth, J. Chem. Phys., 2016, 145, 054103.
     DOI: 10.1063/1.4959605
   
   in the mass-spec context:
   * V. Asgeirsson, C. Bauer and S. Grimme, Chem. Sci., 2017, 8, 4879.
     DOI: 10.1039/c7sc00601b
   * J. Koopman and S. Grimme, ACS Omega 2019, 4, 12, 15120-15133.
     DOI: 10.1021/acsomega.9b02011
   
   for metadynamics refer to:
   * S. Grimme, J. Chem. Theory Comput., 2019, 155, 2847-2862
     DOI: 10.1021/acs.jctc.9b00143
   
   for SPH calculations refer to:
   * S. Spicher and S. Grimme, J. Chem. Theory Comput., 2021, 17, 1701-1714
     DOI: 10.1021/acs.jctc.0c01306
   
   with help from (in alphabetical order)
   P. Atkinson, C. Bannwarth, F. Bohle, G. Brandenburg, E. Caldeweyher
   M. Checinski, S. Dohm, S. Ehlert, S. Ehrlich, I. Gerasimov, J. Koopman
   C. Lavinge, S. Lehtola, F. März, M. Müller, F. Musil, H. Neugebauer
   J. Pisarek, P. Pracht, J. Seibert, P. Shushkov, S. Spicher, M. Stahn
   T. Strunk, J. Stückrath, T. Rose, and J. Unsleber
   
 * started run on 2021/10/08 at 07:13:31.944     

           -------------------------------------------------
          |                Calculation Setup                |
           -------------------------------------------------

          program call               : xtb xtbopt.xyz --sp --alpb thf -P 6
          hostname                   : seskscpg010.prim.scp
          coordinate file            : xtbopt.xyz
          omp threads                :                     6
          number of atoms            :                   107
          number of electrons        :                   280
          charge                     :                     0
          spin                       :                   0.0
          first test random number   :      0.37384353334862

   ID    Z sym.   atoms
    1    7 N      1, 11, 89
    2    6 C      2-6, 10, 12-15, 23, 24, 28, 32, 34, 38, 44, 45, 49, 53, 55,
                  59, 65, 66, 70, 74, 76, 80, 86-88, 91, 93, 95, 98-100, 102,
                  104
    3    1 H      7-9, 16-18, 20, 25-27, 29-31, 35-37, 39-41, 46-48, 50-52,
                  56-58, 60-62, 67-69, 71-73, 77-79, 81-85, 90, 92, 94, 96,
                  97, 101, 103, 105-107
    4   77 Ir     19
    5    5 B      21, 42, 63
    6    8 O      22, 33, 43, 54, 64, 75

molecular fragmentation (1/2 indicates fragments):
111111111111111111111111111111111111111111111111111111111111111111111111
11111111111112222222222222222222222
# atoms in fragment 1/2:    85    22
 fragment masses (1/2) :      730.32      156.20
CMA distance (Bohr)    :  12.108
constraining FC (au)   :  0.0500

           -------------------------------------------------
          |                 G F N 2 - x T B                 |
           -------------------------------------------------

        Reference                      10.1021/acs.jctc.8b01176
      * Hamiltonian:
        H0-scaling (s, p, d)           1.850000    2.230000    2.230000
        zeta-weighting                 0.500000
      * Dispersion:
        s8                             2.700000
        a1                             0.520000
        a2                             5.000000
        s9                             5.000000
      * Repulsion:
        kExp                           1.500000    1.000000
        rExp                           1.000000
      * Coulomb:
        alpha                          2.000000
        third order                    shell-resolved
        anisotropic                    true
        a3                             3.000000
        a5                             4.000000
        cn-shift                       1.200000
        cn-exp                         4.000000
        max-rad                        5.000000

      * Solvation model:               ALPB
        Solvent                        thf
        Parameter file                 internal GFN2-xTB/ALPB
        Dielectric constant                7.6000E+00
        Reference state                gsolv [1 M gas/solution]
        Free energy shift                  5.3248E-03 Eh       3.3414E+00 kcal/mol
        Temperature                        2.9815E+02 K
        Density                            8.8300E-01 kg/L
        Solvent mass                       7.2106E+01 g/mol
        Interaction kernel             P16
        Born radius scaling (c1)           1.7311E+00
        Born radii integrator          GBOBC
        Born offset                        0.0000E+00 a0       0.0000E+00 AA
        H-bond correction              true
        Ion screening                  false
        Surface tension                    1.0000E-05 Eh       1.5569E+01 dyn/cm
        Grid points                               230 per atom
q/qsh data taken from xtbrestart
CAMM data taken from xtbrestart

          ...................................................
          :                      SETUP                      :
          :.................................................:
          :  # basis functions                 269          :
          :  # atomic orbitals                 268          :
          :  # shells                          160          :
          :  # electrons                       280          :
          :  max. iterations                   250          :
          :  Hamiltonian                  GFN2-xTB          :
          :  restarted?                       true          :
          :  GBSA solvation                   true          :
          :  PC potential                    false          :
          :  electronic temp.          300.0000000     K    :
          :  accuracy                    1.0000000          :
          :  -> integral cutoff          0.2500000E+02      :
          :  -> integral neglect         0.1000000E-07      :
          :  -> SCF convergence          0.1000000E-05 Eh   :
          :  -> wf. convergence          0.1000000E-03 e    :
          :  Broyden damping             0.4000000          :
          ...................................................

 iter      E             dE          RMSdq      gap      omega  full diag
   1   -154.6730428 -0.154673E+03  0.407E-05    0.87       0.0  T
   2   -154.6730428 -0.133014E-10  0.346E-05    0.87     279.2  T
   3   -154.6730428 -0.617320E-10  0.211E-05    0.87     458.4  T

   *** convergence criteria satisfied after 3 iterations ***

         #    Occupation            Energy/Eh            Energy/eV
      -------------------------------------------------------------
         1        2.0000           -0.6711462             -18.2628
       ...           ...                  ...                  ...
       134        2.0000           -0.3525219              -9.5926
       135        2.0000           -0.3400870              -9.2542
       136        2.0000           -0.3239749              -8.8158
       137        2.0000           -0.3143757              -8.5546
       138        2.0000           -0.3136057              -8.5336
       139        2.0000           -0.3046874              -8.2910
       140        2.0000           -0.3027853              -8.2392 (HOMO)
       141        0.0000           -0.2708166              -7.3693 (LUMO)
       142                         -0.2430885              -6.6148
       143                         -0.2405523              -6.5458
       144                         -0.2200386              -5.9876
       145                         -0.2191696              -5.9639
       ...                                ...                  ...
       268                          3.6947562             100.5394
      -------------------------------------------------------------
                  HL-Gap            0.0319686 Eh            0.8699 eV
             Fermi-level           -0.2867408 Eh           -7.8026 eV

 SCC (total)                   0 d,  0 h,  0 min,  0.113 sec
 SCC setup                      ...        0 min,  0.003 sec (  2.349%)
 Dispersion                     ...        0 min,  0.003 sec (  2.387%)
 classical contributions        ...        0 min,  0.000 sec (  0.145%)
 integral evaluation            ...        0 min,  0.031 sec ( 27.284%)
 iterations                     ...        0 min,  0.034 sec ( 29.938%)
 molecular gradient             ...        0 min,  0.042 sec ( 37.293%)
 printout                       ...        0 min,  0.001 sec (  0.554%)

         :::::::::::::::::::::::::::::::::::::::::::::::::::::
         ::                     SUMMARY                     ::
         :::::::::::::::::::::::::::::::::::::::::::::::::::::
         :: total energy            -152.619989108605 Eh    ::
         :: total w/o Gsasa/hb      -152.574954924598 Eh    ::
         :: gradient norm              0.037268654108 Eh/a0 ::
         :: HOMO-LUMO gap              0.869910958484 eV    ::
         ::.................................................::
         :: SCC energy              -154.673042810391 Eh    ::
         :: -> isotropic ES            0.240110784801 Eh    ::
         :: -> anisotropic ES          0.017096353898 Eh    ::
         :: -> anisotropic XC          0.054990223956 Eh    ::
         :: -> dispersion             -0.145078680870 Eh    ::
         :: -> Gsolv                  -0.055409336258 Eh    ::
         ::    -> Gelec               -0.010375152251 Eh    ::
         ::    -> Gsasa               -0.047802515937 Eh    ::
         ::    -> Ghb                 -0.002556483514 Eh    ::
         ::    -> Gshift               0.005324815444 Eh    ::
         :: repulsion energy           2.044869145662 Eh    ::
         :: add. restraining           0.000000000000 Eh    ::
         :: total charge               0.000000000018 e     ::
         :::::::::::::::::::::::::::::::::::::::::::::::::::::

           -------------------------------------------------
          |                Property Printout                |
           -------------------------------------------------

    * Orbital Energies and Occupations

         #    Occupation            Energy/Eh            Energy/eV
      -------------------------------------------------------------
         1        2.0000           -0.6711462             -18.2628
       ...           ...                  ...                  ...
       128        2.0000           -0.3909925             -10.6394
       129        2.0000           -0.3836416             -10.4394
       130        2.0000           -0.3833295             -10.4309
       131        2.0000           -0.3791877             -10.3182
       132        2.0000           -0.3784312             -10.2976
       133        2.0000           -0.3676608             -10.0046
       134        2.0000           -0.3525219              -9.5926
       135        2.0000           -0.3400870              -9.2542
       136        2.0000           -0.3239749              -8.8158
       137        2.0000           -0.3143757              -8.5546
       138        2.0000           -0.3136057              -8.5336
       139        2.0000           -0.3046874              -8.2910
       140        2.0000           -0.3027853              -8.2392 (HOMO)
       141        0.0000           -0.2708166              -7.3693 (LUMO)
       142                         -0.2430885              -6.6148
       143                         -0.2405523              -6.5458
       144                         -0.2200386              -5.9876
       145                         -0.2191696              -5.9639
       146                         -0.1997531              -5.4356
       147                         -0.1881986              -5.1211
       148                         -0.1663066              -4.5254
       149                         -0.1433078              -3.8996
       150                         -0.1232484              -3.3538
       151                         -0.1215560              -3.3077
       ...                                ...                  ...
       268                          3.6947562             100.5394
      -------------------------------------------------------------
                  HL-Gap            0.0319686 Eh            0.8699 eV
             Fermi-level           -0.2867408 Eh           -7.8026 eV

     #   Z          covCN         q      C6AA      α(0)
     1   7 N        2.564    -0.123    23.709     7.231
     2   6 C        2.955     0.073    26.357     8.421
     3   6 C        2.918    -0.044    29.082     8.843
     4   6 C        2.923    -0.025    28.618     8.773
     5   6 C        2.915    -0.045    29.128     8.850
     6   6 C        2.892     0.048    26.929     8.508
     7   1 H        0.926     0.049     2.331     2.388
     8   1 H        0.926     0.051     2.313     2.378
     9   1 H        0.926     0.042     2.422     2.434
    10   6 C        2.954     0.069    26.461     8.437
    11   7 N        2.570    -0.125    23.745     7.237
    12   6 C        2.889     0.041    27.074     8.531
    13   6 C        2.915    -0.047    29.177     8.858
    14   6 C        2.922    -0.027    28.682     8.782
    15   6 C        2.918    -0.046    29.152     8.854
    16   1 H        0.926     0.041     2.440     2.443
    17   1 H        0.926     0.048     2.351     2.398
    18   1 H        0.926     0.076     2.021     2.223
    19  77 Ir       5.972    -0.171   390.073    36.523
    20   1 H        0.977     0.097     1.811     2.103
    21   5 B        2.628     0.403    16.038     6.768
    22   8 O        1.638    -0.413    21.107     6.201
    23   6 C        3.835     0.131    18.440     6.109
    24   6 C        3.755    -0.119    22.842     6.815
    25   1 H        0.925     0.052     2.301     2.372
    26   1 H        0.925     0.043     2.407     2.426
    27   1 H        0.925     0.049     2.328     2.386
    28   6 C        3.754    -0.107    22.610     6.780
    29   1 H        0.925     0.046     2.376     2.410
    30   1 H        0.925     0.040     2.445     2.445
    31   1 H        0.925     0.027     2.626     2.534
    32   6 C        3.840     0.131    18.430     6.107
    33   8 O        1.637    -0.407    20.990     6.184
    34   6 C        3.755    -0.119    22.828     6.813
    35   1 H        0.925     0.049     2.328     2.386
    36   1 H        0.925     0.044     2.397     2.421
    37   1 H        0.925     0.048     2.347     2.396
    38   6 C        3.754    -0.119    22.829     6.813
    39   1 H        0.925     0.046     2.366     2.405
    40   1 H        0.925     0.052     2.297     2.370
    41   1 H        0.925     0.043     2.404     2.425
    42   5 B        2.625     0.406    16.010     6.764
    43   8 O        1.637    -0.385    20.576     6.123
    44   6 C        3.837     0.129    18.470     6.114
    45   6 C        3.754    -0.125    22.956     6.832
    46   1 H        0.925     0.055     2.260     2.351
    47   1 H        0.925     0.055     2.263     2.352
    48   1 H        0.925     0.048     2.342     2.393
    49   6 C        3.755    -0.120    22.858     6.817
    50   1 H        0.925     0.047     2.357     2.401
    51   1 H        0.925     0.044     2.396     2.421
    52   1 H        0.925     0.051     2.310     2.377
    53   6 C        3.833     0.127    18.490     6.118
    54   8 O        1.638    -0.381    20.499     6.111
    55   6 C        3.755    -0.124    22.925     6.827
    56   1 H        0.925     0.052     2.290     2.367
    57   1 H        0.925     0.054     2.271     2.357
    58   1 H        0.925     0.047     2.364     2.404
    59   6 C        3.755    -0.124    22.938     6.829
    60   1 H        0.925     0.047     2.358     2.401
    61   1 H        0.925     0.050     2.315     2.379
    62   1 H        0.925     0.051     2.313     2.378
    63   5 B        2.625     0.402    16.063     6.776
    64   8 O        1.637    -0.380    20.482     6.109
    65   6 C        3.834     0.125    18.522     6.123
    66   6 C        3.755    -0.130    23.050     6.846
    67   1 H        0.925     0.058     2.220     2.330
    68   1 H        0.925     0.054     2.274     2.358
    69   1 H        0.925     0.049     2.338     2.391
    70   6 C        3.755    -0.128    23.015     6.841
    71   1 H        0.925     0.060     2.195     2.317
    72   1 H        0.925     0.049     2.333     2.389
    73   1 H        0.925     0.051     2.304     2.374
    74   6 C        3.828     0.128    18.492     6.119
    75   8 O        1.637    -0.385    20.577     6.123
    76   6 C        3.755    -0.123    22.909     6.825
    77   1 H        0.925     0.049     2.329     2.387
    78   1 H        0.925     0.052     2.299     2.371
    79   1 H        0.925     0.054     2.269     2.356
    80   6 C        3.755    -0.120    22.854     6.817
    81   1 H        0.925     0.039     2.459     2.452
    82   1 H        0.925     0.047     2.358     2.401
    83   1 H        0.925     0.053     2.283     2.363
    84   1 H        0.926     0.048     2.349     2.397
    85   1 H        0.926     0.044     2.391     2.418
    86   6 C        2.949    -0.050    29.245     8.870
    87   6 C        3.062    -0.026    28.578     8.766
    88   6 C        3.061    -0.074    29.785     8.950
    89   7 N        2.848    -0.009    21.431     6.876
    90   1 H        0.926     0.014     2.827     2.629
    91   6 C        3.043    -0.030    28.713     8.789
    92   1 H        0.926     0.021     2.714     2.576
    93   6 C        3.746    -0.015    20.912     6.523
    94   1 H        0.926     0.030     2.590     2.517
    95   6 C        2.969     0.007    27.868     8.659
    96   1 H        0.924     0.072     2.066     2.248
    97   1 H        0.924     0.061     2.191     2.315
    98   6 C        2.923    -0.037    28.922     8.819
    99   6 C        2.924    -0.043    29.069     8.842
   100   6 C        2.919    -0.033    28.828     8.805
   101   1 H        0.926     0.042     2.428     2.436
   102   6 C        2.919    -0.034    28.851     8.808
   103   1 H        0.926     0.034     2.527     2.486
   104   6 C        2.920    -0.037    28.909     8.817
   105   1 H        0.926     0.038     2.479     2.462
   106   1 H        0.926     0.037     2.492     2.469
   107   1 H        0.926     0.036     2.505     2.475

 Mol. C6AA /au·bohr⁶  :     123409.994370
 Mol. C8AA /au·bohr⁸  :    3264549.048854
 Mol. α(0) /au        :        546.915594


Wiberg/Mayer (AO) data.
largest (>0.10) Wiberg bond orders for each atom

 ---------------------------------------------------------------------------
     #   Z sym  total        # sym  WBO       # sym  WBO       # sym  WBO
 ---------------------------------------------------------------------------
     1   7 N    3.405 --     6 C    1.381     2 C    1.299    19 Ir   0.464
     2   6 C    3.979 --     3 C    1.343     1 N    1.299    10 C    1.102
     3   6 C    3.988 --     4 C    1.490     2 C    1.343     9 H    0.962
                             6 C    0.106
     4   6 C    3.984 --     3 C    1.490     5 C    1.371    84 H    0.969
     5   6 C    3.980 --     6 C    1.468     4 C    1.371     8 H    0.969
     6   6 C    3.979 --     5 C    1.468     1 N    1.381     7 H    0.957
                             3 C    0.106
     7   1 H    0.997 --     6 C    0.957
     8   1 H    0.997 --     5 C    0.969
     9   1 H    0.998 --     3 C    0.962
    10   6 C    3.979 --    15 C    1.347    11 N    1.293     2 C    1.102
    11   7 N    3.413 --    12 C    1.379    10 C    1.293    19 Ir   0.458
    12   6 C    3.973 --    13 C    1.465    11 N    1.379    18 H    0.948
                            15 C    0.105
    13   6 C    3.982 --    12 C    1.465    14 C    1.374    17 H    0.969
    14   6 C    3.981 --    15 C    1.485    13 C    1.374    85 H    0.970
    15   6 C    3.989 --    14 C    1.485    10 C    1.347    16 H    0.962
                            12 C    0.105
    16   1 H    0.998 --    15 C    0.962
    17   1 H    0.997 --    13 C    0.969
    18   1 H    0.994 --    12 C    0.948
    19  77 Ir   5.255 --    63 B    0.879    42 B    0.869    21 B    0.715
                            86 C    0.595    20 H    0.544     1 N    0.464
                            11 N    0.458
    20   1 H    0.988 --    19 Ir   0.544    86 C    0.341
    21   5 B    3.262 --    33 O    1.105    22 O    1.086    19 Ir   0.715
    22   8 O    2.185 --    21 B    1.086    23 C    0.945
    23   6 C    3.945 --    24 C    0.996    28 C    0.990    22 O    0.945
                            32 C    0.941
    24   6 C    3.994 --    23 C    0.996    26 H    0.984    27 H    0.983
                            25 H    0.983
    25   1 H    0.997 --    24 C    0.983
    26   1 H    0.997 --    24 C    0.984
    27   1 H    0.997 --    24 C    0.983
    28   6 C    3.997 --    23 C    0.990    31 H    0.985    29 H    0.984
                            30 H    0.984
    29   1 H    0.997 --    28 C    0.984
    30   1 H    0.998 --    28 C    0.984
    31   1 H    0.999 --    28 C    0.985
    32   6 C    3.942 --    38 C    0.997    34 C    0.991    33 O    0.942
                            23 C    0.941
    33   8 O    2.195 --    21 B    1.105    32 C    0.942
    34   6 C    3.994 --    32 C    0.991    36 H    0.984    37 H    0.982
                            35 H    0.982
    35   1 H    0.998 --    34 C    0.982
    36   1 H    0.997 --    34 C    0.984
    37   1 H    0.997 --    34 C    0.982
    38   6 C    3.995 --    32 C    0.997    41 H    0.984    39 H    0.983
                            40 H    0.983
    39   1 H    0.998 --    38 C    0.983
    40   1 H    0.997 --    38 C    0.983
    41   1 H    0.997 --    38 C    0.984
    42   5 B    3.330 --    43 O    1.110    54 O    1.104    19 Ir   0.869
    43   8 O    2.220 --    42 B    1.110    44 C    0.938
    44   6 C    3.938 --    45 C    0.997    49 C    0.991    53 C    0.939
                            43 O    0.938
    45   6 C    3.993 --    44 C    0.997    48 H    0.983    46 H    0.982
                            47 H    0.982
    46   1 H    0.997 --    45 C    0.982
    47   1 H    0.997 --    45 C    0.982
    48   1 H    0.996 --    45 C    0.983
    49   6 C    3.994 --    44 C    0.991    50 H    0.984    51 H    0.983
                            52 H    0.980
    50   1 H    0.997 --    49 C    0.984
    51   1 H    0.998 --    49 C    0.983
    52   1 H    0.997 --    49 C    0.980
    53   6 C    3.939 --    55 C    0.996    59 C    0.991    44 C    0.939
                            54 O    0.938
    54   8 O    2.225 --    42 B    1.104    53 C    0.938
    55   6 C    3.993 --    53 C    0.996    58 H    0.984    57 H    0.983
                            56 H    0.983
    56   1 H    0.997 --    55 C    0.983
    57   1 H    0.997 --    55 C    0.983
    58   1 H    0.997 --    55 C    0.984
    59   6 C    3.994 --    53 C    0.991    61 H    0.983    62 H    0.983
                            60 H    0.982
    60   1 H    0.998 --    59 C    0.982
    61   1 H    0.997 --    59 C    0.983
    62   1 H    0.997 --    59 C    0.983
    63   5 B    3.350 --    75 O    1.112    64 O    1.105    19 Ir   0.879
    64   8 O    2.223 --    63 B    1.105    65 C    0.940
    65   6 C    3.939 --    70 C    0.996    66 C    0.991    64 O    0.940
                            74 C    0.938
    66   6 C    3.992 --    65 C    0.991    69 H    0.983    68 H    0.983
                            67 H    0.979
    67   1 H    0.997 --    66 C    0.979
    68   1 H    0.997 --    66 C    0.983
    69   1 H    0.997 --    66 C    0.983
    70   6 C    3.992 --    65 C    0.996    72 H    0.984    73 H    0.982
                            71 H    0.982
    71   1 H    0.996 --    70 C    0.982
    72   1 H    0.997 --    70 C    0.984
    73   1 H    0.997 --    70 C    0.982
    74   6 C    3.937 --    76 C    0.996    80 C    0.991    65 C    0.938
                            75 O    0.938
    75   8 O    2.227 --    63 B    1.112    74 C    0.938
    76   6 C    3.993 --    74 C    0.996    77 H    0.983    78 H    0.982
                            79 H    0.982
    77   1 H    0.996 --    76 C    0.983
    78   1 H    0.997 --    76 C    0.982
    79   1 H    0.997 --    76 C    0.982
    80   6 C    3.995 --    74 C    0.991    81 H    0.984    83 H    0.984
                            82 H    0.983
    81   1 H    0.998 --    80 C    0.984
    82   1 H    0.997 --    80 C    0.983
    83   1 H    0.996 --    80 C    0.984
    84   1 H    0.997 --     4 C    0.969
    85   1 H    0.997 --    14 C    0.970
    86   6 C    3.952 --    87 C    1.501    88 C    1.284    19 Ir   0.595
                            20 H    0.341
    87   6 C    3.938 --    86 C    1.501    89 N    1.203    90 H    0.968
                            91 C    0.131
    88   6 C    3.976 --    91 C    1.550    86 C    1.284    92 H    0.969
    89   7 N    3.619 --    91 C    1.213    87 C    1.203    93 C    0.996
    90   1 H    1.000 --    87 C    0.968
    91   6 C    3.938 --    88 C    1.550    89 N    1.213    94 H    0.968
                            87 C    0.131
    92   1 H    0.999 --    88 C    0.969
    93   6 C    3.972 --    89 N    0.996    95 C    0.991    97 H    0.962
                            96 H    0.953
    94   1 H    0.998 --    91 C    0.968
    95   6 C    3.987 --    98 C    1.418    99 C    1.412    93 C    0.991
                           104 C    0.110
    96   1 H    0.994 --    93 C    0.953
    97   1 H    0.996 --    93 C    0.962
    98   6 C    3.992 --   100 C    1.442    95 C    1.418   101 H    0.967
                           102 C    0.111
    99   6 C    3.990 --   102 C    1.447    95 C    1.412   103 H    0.969
                           100 C    0.112
   100   6 C    3.992 --    98 C    1.442   104 C    1.441   105 H    0.971
                            99 C    0.112
   101   1 H    0.998 --    98 C    0.967
   102   6 C    3.991 --    99 C    1.447   104 C    1.437   106 H    0.971
                            98 C    0.111
   103   1 H    0.999 --    99 C    0.969
   104   6 C    3.992 --   100 C    1.441   102 C    1.437   107 H    0.971
                            95 C    0.110
   105   1 H    0.998 --   100 C    0.971
   106   1 H    0.998 --   102 C    0.971
   107   1 H    0.998 --   104 C    0.971
 ---------------------------------------------------------------------------

Topologies differ in total number of bonds
Writing topology from bond orders to xtbtopo.mol

molecular dipole:
                 x           y           z       tot (Debye)
 q only:       -0.340      -0.082       0.456
   full:       -1.534       0.236      -0.212       3.983
molecular quadrupole (traceless):
                xx          xy          yy          xz          yz          zz
 q only:        3.637       4.137      -7.159      -7.237       2.012       3.522
  q+dip:        8.352       5.169      -8.703      -8.841       7.594       0.351
   full:        5.194       6.613      -8.011      -9.833       4.508       2.817


           -------------------------------------------------
          | TOTAL ENERGY             -152.619989108605 Eh   |
          | GRADIENT NORM               0.037268654108 Eh/α |
          | HOMO-LUMO GAP               0.869910958484 eV   |
           -------------------------------------------------

------------------------------------------------------------------------
 * finished run on 2021/10/08 at 07:13:32.104     
------------------------------------------------------------------------
 total:
 * wall-time:     0 d,  0 h,  0 min,  0.159 sec
 *  cpu-time:     0 d,  0 h,  0 min,  0.918 sec
 * ratio c/w:     5.758 speedup
 SCF:
 * wall-time:     0 d,  0 h,  0 min,  0.115 sec
 *  cpu-time:     0 d,  0 h,  0 min,  0.684 sec
 * ratio c/w:     5.952 speedup

