      -----------------------------------------------------------      
     |                   =====================                   |     
     |                           x T B                           |     
     |                   =====================                   |     
     |                         S. Grimme                         |     
     |          Mulliken Center for Theoretical Chemistry        |     
     |                    University of Bonn                     |     
      -----------------------------------------------------------      

   * xtb version 6.4.0 (f63f532) compiled by 'knkr256@seskscpg008.prim.scp' on 2021-04-09

   xtb is free software: you can redistribute it and/or modify it under
   the terms of the GNU Lesser General Public License as published by
   the Free Software Foundation, either version 3 of the License, or
   (at your option) any later version.
   
   xtb is distributed in the hope that it will be useful,
   but WITHOUT ANY WARRANTY; without even the implied warranty of
   MERCHANTABILITY or FITNESS FOR A PARTICULAR PURPOSE.  See the
   GNU Lesser General Public License for more details.
   
   Cite this work as:
   * C. Bannwarth, E. Caldeweyher, S. Ehlert, A. Hansen, P. Pracht,
     J. Seibert, S. Spicher, S. Grimme, WIREs Comput. Mol. Sci., 2020, 11,
     e01493. DOI: 10.1002/wcms.1493
   
   for GFN2-xTB:
   * C. Bannwarth, S. Ehlert and S. Grimme., J. Chem. Theory Comput., 2019,
     15, 1652-1671. DOI: 10.1021/acs.jctc.8b01176
   for GFN1-xTB:
   * S. Grimme, C. Bannwarth, P. Shushkov, J. Chem. Theory Comput., 2017,
     13, 1989-2009. DOI: 10.1021/acs.jctc.7b00118
   for GFN0-xTB:
   * P. Pracht, E. Caldeweyher, S. Ehlert, S. Grimme, ChemRxiv, 2019, preprint.
     DOI: 10.26434/chemrxiv.8326202.v1
   for GFN-FF:
   * S. Spicher and S. Grimme, Angew. Chem. Int. Ed., 2020, 59, 15665-15673.
     DOI: 10.1002/anie.202004239
   
   for DFT-D4:
   * E. Caldeweyher, C. Bannwarth and S. Grimme, J. Chem. Phys., 2017,
     147, 034112. DOI: 10.1063/1.4993215
   * E. Caldeweyher, S. Ehlert, A. Hansen, H. Neugebauer, S. Spicher,
     C. Bannwarth and S. Grimme, J. Chem. Phys., 2019, 150, 154122.
     DOI: 10.1063/1.5090222
   * E. Caldeweyher, J.-M. Mewes, S. Ehlert and S. Grimme, Phys. Chem. Chem. Phys.
     2020, 22, 8499-8512. DOI: 10.1039/D0CP00502A
   
   for sTDA-xTB:
   * S. Grimme and C. Bannwarth, J. Chem. Phys., 2016, 145, 054103.
     DOI: 10.1063/1.4959605
   
   in the mass-spec context:
   * V. Asgeirsson, C. Bauer and S. Grimme, Chem. Sci., 2017, 8, 4879.
     DOI: 10.1039/c7sc00601b
   * J. Koopman and S. Grimme, ACS Omega 2019, 4, 12, 15120-15133.
     DOI: 10.1021/acsomega.9b02011
   
   for metadynamics refer to:
   * S. Grimme, J. Chem. Theory Comput., 2019, 155, 2847-2862
     DOI: 10.1021/acs.jctc.9b00143
   
   for SPH calculations refer to:
   * S. Spicher and S. Grimme, J. Chem. Theory Comput., 2021, 17, 1701-1714
     DOI: 10.1021/acs.jctc.0c01306
   
   with help from (in alphabetical order)
   P. Atkinson, C. Bannwarth, F. Bohle, G. Brandenburg, E. Caldeweyher
   M. Checinski, S. Dohm, S. Ehlert, S. Ehrlich, I. Gerasimov, J. Koopman
   C. Lavinge, S. Lehtola, F. März, M. Müller, F. Musil, H. Neugebauer
   J. Pisarek, P. Pracht, J. Seibert, P. Shushkov, S. Spicher, M. Stahn
   T. Strunk, J. Stückrath, T. Rose, and J. Unsleber
   
 * started run on 2021/10/08 at 07:11:03.594     

           -------------------------------------------------
          |                Calculation Setup                |
           -------------------------------------------------

          program call               : xtb xtbopt.xyz --sp --alpb thf -P 6
          hostname                   : seskscpg010.prim.scp
          coordinate file            : xtbopt.xyz
          omp threads                :                     6
          number of atoms            :                    99
          number of electrons        :                   256
          charge                     :                     0
          spin                       :                   0.0
          first test random number   :      0.64654145806843

   ID    Z sym.   atoms
    1    7 N      1, 11
    2    6 C      2-6, 10, 12-15, 23, 24, 28, 32, 34, 38, 44, 45, 49, 53, 55,
                  59, 65, 66, 70, 74, 76, 80, 86-89, 91, 93, 94
    3    1 H      7-9, 16-18, 20, 25-27, 29-31, 35-37, 39-41, 46-48, 50-52,
                  56-58, 60-62, 67-69, 71-73, 77-79, 81-85, 90, 92, 95-99
    4   77 Ir     19
    5    5 B      21, 42, 63
    6    8 O      22, 33, 43, 54, 64, 75

molecular fragmentation (1/2 indicates fragments):
111111111111111111111111111111111111111111111111111111111111111111111111
111111111111122222222222222
# atoms in fragment 1/2:    85    14
 fragment masses (1/2) :      730.32       91.13
CMA distance (Bohr)    :   9.123
constraining FC (au)   :  0.0500

           -------------------------------------------------
          |                 G F N 2 - x T B                 |
           -------------------------------------------------

        Reference                      10.1021/acs.jctc.8b01176
      * Hamiltonian:
        H0-scaling (s, p, d)           1.850000    2.230000    2.230000
        zeta-weighting                 0.500000
      * Dispersion:
        s8                             2.700000
        a1                             0.520000
        a2                             5.000000
        s9                             5.000000
      * Repulsion:
        kExp                           1.500000    1.000000
        rExp                           1.000000
      * Coulomb:
        alpha                          2.000000
        third order                    shell-resolved
        anisotropic                    true
        a3                             3.000000
        a5                             4.000000
        cn-shift                       1.200000
        cn-exp                         4.000000
        max-rad                        5.000000

      * Solvation model:               ALPB
        Solvent                        thf
        Parameter file                 internal GFN2-xTB/ALPB
        Dielectric constant                7.6000E+00
        Reference state                gsolv [1 M gas/solution]
        Free energy shift                  5.3248E-03 Eh       3.3414E+00 kcal/mol
        Temperature                        2.9815E+02 K
        Density                            8.8300E-01 kg/L
        Solvent mass                       7.2106E+01 g/mol
        Interaction kernel             P16
        Born radius scaling (c1)           1.7311E+00
        Born radii integrator          GBOBC
        Born offset                        0.0000E+00 a0       0.0000E+00 AA
        H-bond correction              true
        Ion screening                  false
        Surface tension                    1.0000E-05 Eh       1.5569E+01 dyn/cm
        Grid points                               230 per atom
q/qsh data taken from xtbrestart
CAMM data taken from xtbrestart

          ...................................................
          :                      SETUP                      :
          :.................................................:
          :  # basis functions                 246          :
          :  # atomic orbitals                 245          :
          :  # shells                          147          :
          :  # electrons                       256          :
          :  max. iterations                   250          :
          :  Hamiltonian                  GFN2-xTB          :
          :  restarted?                       true          :
          :  GBSA solvation                   true          :
          :  PC potential                    false          :
          :  electronic temp.          300.0000000     K    :
          :  accuracy                    1.0000000          :
          :  -> integral cutoff          0.2500000E+02      :
          :  -> integral neglect         0.1000000E-07      :
          :  -> SCF convergence          0.1000000E-05 Eh   :
          :  -> wf. convergence          0.1000000E-03 e    :
          :  Broyden damping             0.4000000          :
          ...................................................

 iter      E             dE          RMSdq      gap      omega  full diag
   1   -141.4327941 -0.141433E+03  0.697E-05    0.88       0.0  T
   2   -141.4327941  0.789470E-09  0.108E-04    0.88      92.9  T
   3   -141.4327941 -0.909012E-09  0.458E-05    0.88     219.3  T

   *** convergence criteria satisfied after 3 iterations ***

         #    Occupation            Energy/Eh            Energy/eV
      -------------------------------------------------------------
         1        2.0000           -0.6729309             -18.3114
       ...           ...                  ...                  ...
       122        2.0000           -0.3754081             -10.2154
       123        2.0000           -0.3443520              -9.3703
       124        2.0000           -0.3284558              -8.9377
       125        2.0000           -0.3186247              -8.6702
       126        2.0000           -0.3154824              -8.5847
       127        2.0000           -0.3080374              -8.3821
       128        2.0000           -0.3060354              -8.3276 (HOMO)
       129                         -0.2737012              -7.4478 (LUMO)
       130                         -0.2459642              -6.6930
       131                         -0.2432506              -6.6192
       132                         -0.2072115              -5.6385
       133                         -0.2021774              -5.5015
       ...                                ...                  ...
       245                          3.7567941             102.2276
      -------------------------------------------------------------
                  HL-Gap            0.0323342 Eh            0.8799 eV
             Fermi-level           -0.2898138 Eh           -7.8862 eV

 SCC (total)                   0 d,  0 h,  0 min,  0.098 sec
 SCC setup                      ...        0 min,  0.002 sec (  2.047%)
 Dispersion                     ...        0 min,  0.002 sec (  1.636%)
 classical contributions        ...        0 min,  0.000 sec (  0.148%)
 integral evaluation            ...        0 min,  0.026 sec ( 26.179%)
 iterations                     ...        0 min,  0.030 sec ( 30.864%)
 molecular gradient             ...        0 min,  0.038 sec ( 38.494%)
 printout                       ...        0 min,  0.001 sec (  0.576%)

         :::::::::::::::::::::::::::::::::::::::::::::::::::::
         ::                     SUMMARY                     ::
         :::::::::::::::::::::::::::::::::::::::::::::::::::::
         :: total energy            -139.597509080951 Eh    ::
         :: total w/o Gsasa/hb      -139.558112661012 Eh    ::
         :: gradient norm              0.033679239812 Eh/a0 ::
         :: HOMO-LUMO gap              0.879859298522 eV    ::
         ::.................................................::
         :: SCC energy              -141.432794065008 Eh    ::
         :: -> isotropic ES            0.235266099976 Eh    ::
         :: -> anisotropic ES          0.015272877623 Eh    ::
         :: -> anisotropic XC          0.048075201878 Eh    ::
         :: -> dispersion             -0.135305938483 Eh    ::
         :: -> Gsolv                  -0.048305462438 Eh    ::
         ::    -> Gelec               -0.008909042499 Eh    ::
         ::    -> Gsasa               -0.042299657562 Eh    ::
         ::    -> Ghb                 -0.002421577821 Eh    ::
         ::    -> Gshift               0.005324815444 Eh    ::
         :: repulsion energy           1.827207955782 Eh    ::
         :: add. restraining           0.000000000000 Eh    ::
         :: total charge               0.000000000011 e     ::
         :::::::::::::::::::::::::::::::::::::::::::::::::::::

           -------------------------------------------------
          |                Property Printout                |
           -------------------------------------------------

    * Orbital Energies and Occupations

         #    Occupation            Energy/Eh            Energy/eV
      -------------------------------------------------------------
         1        2.0000           -0.6729309             -18.3114
       ...           ...                  ...                  ...
       116        2.0000           -0.3942950             -10.7293
       117        2.0000           -0.3857918             -10.4979
       118        2.0000           -0.3849680             -10.4755
       119        2.0000           -0.3813887             -10.3781
       120        2.0000           -0.3811331             -10.3712
       121        2.0000           -0.3794807             -10.3262
       122        2.0000           -0.3754081             -10.2154
       123        2.0000           -0.3443520              -9.3703
       124        2.0000           -0.3284558              -8.9377
       125        2.0000           -0.3186247              -8.6702
       126        2.0000           -0.3154824              -8.5847
       127        2.0000           -0.3080374              -8.3821
       128        2.0000           -0.3060354              -8.3276 (HOMO)
       129                         -0.2737012              -7.4478 (LUMO)
       130                         -0.2459642              -6.6930
       131                         -0.2432506              -6.6192
       132                         -0.2072115              -5.6385
       133                         -0.2021774              -5.5015
       134                         -0.2009529              -5.4682
       135                         -0.1806861              -4.9167
       136                         -0.1469806              -3.9995
       137                         -0.1243487              -3.3837
       138                         -0.1213147              -3.3011
       139                         -0.1088146              -2.9610
       ...                                ...                  ...
       245                          3.7567941             102.2276
      -------------------------------------------------------------
                  HL-Gap            0.0323342 Eh            0.8799 eV
             Fermi-level           -0.2898138 Eh           -7.8862 eV

     #   Z          covCN         q      C6AA      α(0)
     1   7 N        2.553    -0.123    23.694     7.229
     2   6 C        2.954     0.076    26.312     8.413
     3   6 C        2.918    -0.044    29.093     8.845
     4   6 C        2.923    -0.023    28.582     8.767
     5   6 C        2.915    -0.045    29.116     8.848
     6   6 C        2.892     0.048    26.920     8.507
     7   1 H        0.926     0.051     2.309     2.376
     8   1 H        0.926     0.053     2.278     2.360
     9   1 H        0.926     0.045     2.384     2.414
    10   6 C        2.954     0.071    26.400     8.427
    11   7 N        2.558    -0.128    23.797     7.245
    12   6 C        2.890     0.042    27.068     8.530
    13   6 C        2.915    -0.046    29.134     8.851
    14   6 C        2.922    -0.026    28.649     8.778
    15   6 C        2.918    -0.045    29.130     8.851
    16   1 H        0.926     0.043     2.410     2.428
    17   1 H        0.926     0.049     2.332     2.388
    18   1 H        0.926     0.076     2.025     2.225
    19  77 Ir       5.949    -0.157   388.311    36.441
    20   1 H        0.977     0.085     1.918     2.164
    21   5 B        2.629     0.402    16.036     6.766
    22   8 O        1.638    -0.409    21.037     6.191
    23   6 C        3.835     0.130    18.448     6.111
    24   6 C        3.755    -0.121    22.870     6.819
    25   1 H        0.925     0.053     2.285     2.364
    26   1 H        0.925     0.044     2.396     2.421
    27   1 H        0.925     0.051     2.313     2.378
    28   6 C        3.754    -0.109    22.632     6.783
    29   1 H        0.925     0.047     2.362     2.404
    30   1 H        0.925     0.041     2.434     2.440
    31   1 H        0.925     0.028     2.621     2.532
    32   6 C        3.841     0.131    18.433     6.108
    33   8 O        1.637    -0.406    20.969     6.181
    34   6 C        3.755    -0.120    22.857     6.817
    35   1 H        0.925     0.051     2.313     2.378
    36   1 H        0.925     0.045     2.383     2.414
    37   1 H        0.925     0.049     2.334     2.389
    38   6 C        3.754    -0.119    22.845     6.815
    39   1 H        0.925     0.047     2.363     2.404
    40   1 H        0.925     0.053     2.287     2.365
    41   1 H        0.925     0.044     2.390     2.418
    42   5 B        2.624     0.402    16.063     6.777
    43   8 O        1.637    -0.386    20.583     6.124
    44   6 C        3.836     0.129    18.469     6.114
    45   6 C        3.755    -0.125    22.961     6.833
    46   1 H        0.925     0.055     2.260     2.351
    47   1 H        0.925     0.055     2.258     2.350
    48   1 H        0.925     0.049     2.335     2.390
    49   6 C        3.755    -0.121    22.875     6.820
    50   1 H        0.925     0.048     2.350     2.397
    51   1 H        0.925     0.045     2.388     2.416
    52   1 H        0.925     0.052     2.292     2.368
    53   6 C        3.832     0.128    18.489     6.118
    54   8 O        1.637    -0.383    20.528     6.116
    55   6 C        3.755    -0.124    22.935     6.829
    56   1 H        0.925     0.053     2.279     2.361
    57   1 H        0.925     0.054     2.269     2.356
    58   1 H        0.925     0.047     2.352     2.398
    59   6 C        3.755    -0.123    22.922     6.827
    60   1 H        0.925     0.045     2.385     2.415
    61   1 H        0.925     0.052     2.300     2.372
    62   1 H        0.925     0.051     2.311     2.377
    63   5 B        2.626     0.402    16.054     6.773
    64   8 O        1.637    -0.379    20.459     6.106
    65   6 C        3.833     0.125    18.525     6.124
    66   6 C        3.755    -0.130    23.052     6.846
    67   1 H        0.925     0.059     2.215     2.327
    68   1 H        0.925     0.054     2.275     2.359
    69   1 H        0.925     0.049     2.329     2.386
    70   6 C        3.755    -0.129    23.028     6.843
    71   1 H        0.925     0.060     2.195     2.317
    72   1 H        0.925     0.050     2.321     2.383
    73   1 H        0.925     0.052     2.300     2.372
    74   6 C        3.829     0.127    18.497     6.119
    75   8 O        1.637    -0.382    20.508     6.113
    76   6 C        3.755    -0.124    22.925     6.827
    77   1 H        0.925     0.050     2.318     2.381
    78   1 H        0.925     0.053     2.284     2.364
    79   1 H        0.925     0.054     2.265     2.354
    80   6 C        3.755    -0.121    22.885     6.821
    81   1 H        0.925     0.040     2.448     2.447
    82   1 H        0.925     0.049     2.335     2.390
    83   1 H        0.925     0.054     2.272     2.357
    84   1 H        0.926     0.050     2.314     2.379
    85   1 H        0.926     0.047     2.361     2.403
    86   6 C        2.829    -0.018    28.448     8.740
    87   6 C        2.930    -0.040    29.004     8.832
    88   6 C        2.922    -0.042    29.034     8.836
    89   6 C        2.965     0.010    27.800     8.648
    90   1 H        0.925     0.021     2.712     2.575
    91   6 C        2.917    -0.037    28.911     8.817
    92   1 H        0.926     0.036     2.502     2.474
    93   6 C        2.923    -0.053    29.308     8.878
    94   6 C        3.757    -0.115    22.760     6.802
    95   1 H        0.925     0.028     2.609     2.526
    96   1 H        0.926     0.028     2.615     2.529
    97   1 H        0.924     0.051     2.309     2.377
    98   1 H        0.925     0.039     2.469     2.457
    99   1 H        0.925     0.046     2.366     2.406

 Mol. C6AA /au·bohr⁶  :     102721.320666
 Mol. C8AA /au·bohr⁸  :    2732956.922987
 Mol. α(0) /au        :        497.376946


Wiberg/Mayer (AO) data.
largest (>0.10) Wiberg bond orders for each atom

 ---------------------------------------------------------------------------
     #   Z sym  total        # sym  WBO       # sym  WBO       # sym  WBO
 ---------------------------------------------------------------------------
     1   7 N    3.403 --     6 C    1.387     2 C    1.307    19 Ir   0.447
     2   6 C    3.979 --     3 C    1.345     1 N    1.307    10 C    1.096
     3   6 C    3.988 --     4 C    1.487     2 C    1.345     9 H    0.962
                             6 C    0.106
     4   6 C    3.985 --     3 C    1.487     5 C    1.378    84 H    0.969
     5   6 C    3.979 --     6 C    1.463     4 C    1.378     8 H    0.969
     6   6 C    3.979 --     5 C    1.463     1 N    1.387     7 H    0.957
                             3 C    0.106
     7   1 H    0.997 --     6 C    0.957
     8   1 H    0.996 --     5 C    0.969
     9   1 H    0.997 --     3 C    0.962
    10   6 C    3.979 --    15 C    1.351    11 N    1.298     2 C    1.096
    11   7 N    3.402 --    12 C    1.382    10 C    1.298    19 Ir   0.436
    12   6 C    3.973 --    13 C    1.461    11 N    1.382    18 H    0.948
                            15 C    0.105
    13   6 C    3.982 --    12 C    1.461    14 C    1.380    17 H    0.969
    14   6 C    3.982 --    15 C    1.481    13 C    1.380    85 H    0.969
    15   6 C    3.989 --    14 C    1.481    10 C    1.351    16 H    0.962
                            12 C    0.105
    16   1 H    0.998 --    15 C    0.962
    17   1 H    0.997 --    13 C    0.969
    18   1 H    0.994 --    12 C    0.948
    19  77 Ir   5.190 --    63 B    0.873    42 B    0.862    21 B    0.718
                            86 C    0.586    20 H    0.527     1 N    0.447
                            11 N    0.436
    20   1 H    0.990 --    19 Ir   0.527    86 C    0.352
    21   5 B    3.268 --    33 O    1.107    22 O    1.090    19 Ir   0.718
    22   8 O    2.190 --    21 B    1.090    23 C    0.943
    23   6 C    3.944 --    24 C    0.996    28 C    0.990    22 O    0.943
                            32 C    0.941
    24   6 C    3.994 --    23 C    0.996    26 H    0.984    27 H    0.983
                            25 H    0.983
    25   1 H    0.997 --    24 C    0.983
    26   1 H    0.997 --    24 C    0.984
    27   1 H    0.997 --    24 C    0.983
    28   6 C    3.997 --    23 C    0.990    31 H    0.985    29 H    0.984
                            30 H    0.984
    29   1 H    0.997 --    28 C    0.984
    30   1 H    0.998 --    28 C    0.984
    31   1 H    0.999 --    28 C    0.985
    32   6 C    3.941 --    38 C    0.997    34 C    0.991    23 C    0.941
                            33 O    0.940
    33   8 O    2.197 --    21 B    1.107    32 C    0.940
    34   6 C    3.994 --    32 C    0.991    36 H    0.984    37 H    0.982
                            35 H    0.982
    35   1 H    0.997 --    34 C    0.982
    36   1 H    0.997 --    34 C    0.984
    37   1 H    0.997 --    34 C    0.982
    38   6 C    3.994 --    32 C    0.997    41 H    0.984    39 H    0.983
                            40 H    0.983
    39   1 H    0.998 --    38 C    0.983
    40   1 H    0.997 --    38 C    0.983
    41   1 H    0.997 --    38 C    0.984
    42   5 B    3.332 --    43 O    1.111    54 O    1.107    19 Ir   0.862
    43   8 O    2.221 --    42 B    1.111    44 C    0.937
    44   6 C    3.937 --    45 C    0.997    49 C    0.991    53 C    0.939
                            43 O    0.937
    45   6 C    3.993 --    44 C    0.997    48 H    0.983    46 H    0.982
                            47 H    0.982
    46   1 H    0.997 --    45 C    0.982
    47   1 H    0.997 --    45 C    0.982
    48   1 H    0.997 --    45 C    0.983
    49   6 C    3.994 --    44 C    0.991    50 H    0.984    51 H    0.983
                            52 H    0.980
    50   1 H    0.997 --    49 C    0.984
    51   1 H    0.998 --    49 C    0.983
    52   1 H    0.997 --    49 C    0.980
    53   6 C    3.938 --    55 C    0.996    59 C    0.991    44 C    0.939
                            54 O    0.936
    54   8 O    2.226 --    42 B    1.107    53 C    0.936
    55   6 C    3.993 --    53 C    0.996    58 H    0.983    57 H    0.983
                            56 H    0.983
    56   1 H    0.997 --    55 C    0.983
    57   1 H    0.997 --    55 C    0.983
    58   1 H    0.996 --    55 C    0.983
    59   6 C    3.994 --    53 C    0.991    61 H    0.983    62 H    0.983
                            60 H    0.982
    60   1 H    0.998 --    59 C    0.982
    61   1 H    0.996 --    59 C    0.983
    62   1 H    0.997 --    59 C    0.983
    63   5 B    3.357 --    75 O    1.116    64 O    1.109    19 Ir   0.873
    64   8 O    2.226 --    63 B    1.109    65 C    0.939
    65   6 C    3.938 --    70 C    0.996    66 C    0.991    64 O    0.939
                            74 C    0.938
    66   6 C    3.992 --    65 C    0.991    69 H    0.983    68 H    0.983
                            67 H    0.979
    67   1 H    0.997 --    66 C    0.979
    68   1 H    0.997 --    66 C    0.983
    69   1 H    0.997 --    66 C    0.983
    70   6 C    3.992 --    65 C    0.996    72 H    0.984    73 H    0.982
                            71 H    0.982
    71   1 H    0.996 --    70 C    0.982
    72   1 H    0.996 --    70 C    0.984
    73   1 H    0.997 --    70 C    0.982
    74   6 C    3.936 --    76 C    0.996    80 C    0.991    65 C    0.938
                            75 O    0.937
    75   8 O    2.231 --    63 B    1.116    74 C    0.937
    76   6 C    3.993 --    74 C    0.996    77 H    0.983    78 H    0.982
                            79 H    0.982
    77   1 H    0.996 --    76 C    0.983
    78   1 H    0.997 --    76 C    0.982
    79   1 H    0.997 --    76 C    0.982
    80   6 C    3.995 --    74 C    0.991    81 H    0.984    83 H    0.983
                            82 H    0.983
    81   1 H    0.998 --    80 C    0.984
    82   1 H    0.997 --    80 C    0.983
    83   1 H    0.996 --    80 C    0.983
    84   1 H    0.997 --     4 C    0.969
    85   1 H    0.997 --    14 C    0.969
    86   6 C    3.955 --    87 C    1.396    88 C    1.379    19 Ir   0.586
                            20 H    0.352
    87   6 C    3.989 --    89 C    1.407    86 C    1.396    90 H    0.962
                            91 C    0.103
    88   6 C    3.989 --    91 C    1.445    86 C    1.379    92 H    0.961
                            89 C    0.105
    89   6 C    3.986 --    93 C    1.410    87 C    1.407    94 C    1.022
                            88 C    0.105
    90   1 H    0.999 --    87 C    0.962
    91   6 C    3.989 --    88 C    1.445    93 C    1.432    95 H    0.969
                            87 C    0.103
    92   1 H    0.998 --    88 C    0.961
    93   6 C    3.986 --    91 C    1.432    89 C    1.410    96 H    0.969
    94   6 C    3.994 --    89 C    1.022    98 H    0.984    99 H    0.981
                            97 H    0.969
    95   1 H    0.997 --    91 C    0.969
    96   1 H    0.997 --    93 C    0.969
    97   1 H    0.997 --    94 C    0.969
    98   1 H    0.998 --    94 C    0.984
    99   1 H    0.997 --    94 C    0.981
 ---------------------------------------------------------------------------

Topologies differ in total number of bonds
Writing topology from bond orders to xtbtopo.mol

molecular dipole:
                 x           y           z       tot (Debye)
 q only:        0.032       0.192      -0.585
   full:       -1.139       0.444      -1.150       4.267
molecular quadrupole (traceless):
                xx          xy          yy          xz          yz          zz
 q only:       11.234       2.597      -2.377       0.053       9.510      -8.856
  q+dip:       14.273       4.723      -4.865       0.660      14.111      -9.409
   full:       11.799       5.365      -2.490      -1.552      11.229      -9.309


           -------------------------------------------------
          | TOTAL ENERGY             -139.597509080951 Eh   |
          | GRADIENT NORM               0.033679239812 Eh/α |
          | HOMO-LUMO GAP               0.879859298522 eV   |
           -------------------------------------------------

------------------------------------------------------------------------
 * finished run on 2021/10/08 at 07:11:03.732     
------------------------------------------------------------------------
 total:
 * wall-time:     0 d,  0 h,  0 min,  0.138 sec
 *  cpu-time:     0 d,  0 h,  0 min,  0.807 sec
 * ratio c/w:     5.833 speedup
 SCF:
 * wall-time:     0 d,  0 h,  0 min,  0.099 sec
 *  cpu-time:     0 d,  0 h,  0 min,  0.590 sec
 * ratio c/w:     5.969 speedup

