15
 energy: -27.491999347283 gnorm: 0.000182041850 xtb: 6.4.1 (1a32961)
C         0.98148368145920   -1.45683128170035   -0.02817756583231
C         2.11400651317997   -0.66741851591315   -0.07553041274934
Br        3.84411816902974   -1.49162561667270   -0.12334535236790
C         2.03962643317292    0.72814514948950   -0.08990325755366
N         0.89868137956137    1.38633049572826   -0.05992730140213
C        -0.19993728596006    0.64333556953045   -0.01417398646344
N        -1.47679448091775    1.09276151132998    0.02287095672752
C        -2.31951659649898    0.01578840694536    0.06402240791514
C        -1.60810609693389   -1.14703745305059    0.05421801620291
C        -0.23605567498589   -0.78285935684907    0.00410132662991
H         1.04134383202405   -2.53443646839217   -0.01639763694522
H         2.93684117514591    1.32911890131438   -0.12780319233440
H        -1.74883823087127    2.06201789495769    0.01906030040440
H        -3.38218835319152    0.15541636966741    0.09869492489649
H        -2.00136446421380   -2.14297560638501    0.08031077287203
