      -----------------------------------------------------------      
     |                   =====================                   |     
     |                           x T B                           |     
     |                   =====================                   |     
     |                         S. Grimme                         |     
     |          Mulliken Center for Theoretical Chemistry        |     
     |                    University of Bonn                     |     
      -----------------------------------------------------------      

   * xtb version 6.4.0 (f63f532) compiled by 'knkr256@seskscpg008.prim.scp' on 2021-04-09

   xtb is free software: you can redistribute it and/or modify it under
   the terms of the GNU Lesser General Public License as published by
   the Free Software Foundation, either version 3 of the License, or
   (at your option) any later version.
   
   xtb is distributed in the hope that it will be useful,
   but WITHOUT ANY WARRANTY; without even the implied warranty of
   MERCHANTABILITY or FITNESS FOR A PARTICULAR PURPOSE.  See the
   GNU Lesser General Public License for more details.
   
   Cite this work as:
   * C. Bannwarth, E. Caldeweyher, S. Ehlert, A. Hansen, P. Pracht,
     J. Seibert, S. Spicher, S. Grimme, WIREs Comput. Mol. Sci., 2020, 11,
     e01493. DOI: 10.1002/wcms.1493
   
   for GFN2-xTB:
   * C. Bannwarth, S. Ehlert and S. Grimme., J. Chem. Theory Comput., 2019,
     15, 1652-1671. DOI: 10.1021/acs.jctc.8b01176
   for GFN1-xTB:
   * S. Grimme, C. Bannwarth, P. Shushkov, J. Chem. Theory Comput., 2017,
     13, 1989-2009. DOI: 10.1021/acs.jctc.7b00118
   for GFN0-xTB:
   * P. Pracht, E. Caldeweyher, S. Ehlert, S. Grimme, ChemRxiv, 2019, preprint.
     DOI: 10.26434/chemrxiv.8326202.v1
   for GFN-FF:
   * S. Spicher and S. Grimme, Angew. Chem. Int. Ed., 2020, 59, 15665-15673.
     DOI: 10.1002/anie.202004239
   
   for DFT-D4:
   * E. Caldeweyher, C. Bannwarth and S. Grimme, J. Chem. Phys., 2017,
     147, 034112. DOI: 10.1063/1.4993215
   * E. Caldeweyher, S. Ehlert, A. Hansen, H. Neugebauer, S. Spicher,
     C. Bannwarth and S. Grimme, J. Chem. Phys., 2019, 150, 154122.
     DOI: 10.1063/1.5090222
   * E. Caldeweyher, J.-M. Mewes, S. Ehlert and S. Grimme, Phys. Chem. Chem. Phys.
     2020, 22, 8499-8512. DOI: 10.1039/D0CP00502A
   
   for sTDA-xTB:
   * S. Grimme and C. Bannwarth, J. Chem. Phys., 2016, 145, 054103.
     DOI: 10.1063/1.4959605
   
   in the mass-spec context:
   * V. Asgeirsson, C. Bauer and S. Grimme, Chem. Sci., 2017, 8, 4879.
     DOI: 10.1039/c7sc00601b
   * J. Koopman and S. Grimme, ACS Omega 2019, 4, 12, 15120-15133.
     DOI: 10.1021/acsomega.9b02011
   
   for metadynamics refer to:
   * S. Grimme, J. Chem. Theory Comput., 2019, 155, 2847-2862
     DOI: 10.1021/acs.jctc.9b00143
   
   for SPH calculations refer to:
   * S. Spicher and S. Grimme, J. Chem. Theory Comput., 2021, 17, 1701-1714
     DOI: 10.1021/acs.jctc.0c01306
   
   with help from (in alphabetical order)
   P. Atkinson, C. Bannwarth, F. Bohle, G. Brandenburg, E. Caldeweyher
   M. Checinski, S. Dohm, S. Ehlert, S. Ehrlich, I. Gerasimov, J. Koopman
   C. Lavinge, S. Lehtola, F. März, M. Müller, F. Musil, H. Neugebauer
   J. Pisarek, P. Pracht, J. Seibert, P. Shushkov, S. Spicher, M. Stahn
   T. Strunk, J. Stückrath, T. Rose, and J. Unsleber
   
 * started run on 2021/10/08 at 07:15:46.536     

           -------------------------------------------------
          |                Calculation Setup                |
           -------------------------------------------------

          program call               : xtb xtbopt.xyz --sp --alpb thf -P 6
          hostname                   : seskscpg010.prim.scp
          coordinate file            : xtbopt.xyz
          omp threads                :                     6
          number of atoms            :                    98
          number of electrons        :                   256
          charge                     :                     0
          spin                       :                   0.0
          first test random number   :      0.22643120738056

   ID    Z sym.   atoms
    1    7 N      1, 11, 91
    2    6 C      2-6, 10, 12-15, 23, 24, 28, 32, 34, 38, 44, 45, 49, 53, 55,
                  59, 65, 66, 70, 74, 76, 80, 86-89, 92, 93
    3    1 H      7-9, 16-18, 20, 25-27, 29-31, 35-37, 39-41, 46-48, 50-52,
                  56-58, 60-62, 67-69, 71-73, 77-79, 81-85, 90, 94-98
    4   77 Ir     19
    5    5 B      21, 42, 63
    6    8 O      22, 33, 43, 54, 64, 75

molecular fragmentation (1/2 indicates fragments):
111111111111111111111111111111111111111111111111111111111111111111111111
11111111111112222222222222
# atoms in fragment 1/2:    85    13
 fragment masses (1/2) :      730.32       92.12
CMA distance (Bohr)    :   8.324
constraining FC (au)   :  0.0500

           -------------------------------------------------
          |                 G F N 2 - x T B                 |
           -------------------------------------------------

        Reference                      10.1021/acs.jctc.8b01176
      * Hamiltonian:
        H0-scaling (s, p, d)           1.850000    2.230000    2.230000
        zeta-weighting                 0.500000
      * Dispersion:
        s8                             2.700000
        a1                             0.520000
        a2                             5.000000
        s9                             5.000000
      * Repulsion:
        kExp                           1.500000    1.000000
        rExp                           1.000000
      * Coulomb:
        alpha                          2.000000
        third order                    shell-resolved
        anisotropic                    true
        a3                             3.000000
        a5                             4.000000
        cn-shift                       1.200000
        cn-exp                         4.000000
        max-rad                        5.000000

      * Solvation model:               ALPB
        Solvent                        thf
        Parameter file                 internal GFN2-xTB/ALPB
        Dielectric constant                7.6000E+00
        Reference state                gsolv [1 M gas/solution]
        Free energy shift                  5.3248E-03 Eh       3.3414E+00 kcal/mol
        Temperature                        2.9815E+02 K
        Density                            8.8300E-01 kg/L
        Solvent mass                       7.2106E+01 g/mol
        Interaction kernel             P16
        Born radius scaling (c1)           1.7311E+00
        Born radii integrator          GBOBC
        Born offset                        0.0000E+00 a0       0.0000E+00 AA
        H-bond correction              true
        Ion screening                  false
        Surface tension                    1.0000E-05 Eh       1.5569E+01 dyn/cm
        Grid points                               230 per atom
q/qsh data taken from xtbrestart
CAMM data taken from xtbrestart

          ...................................................
          :                      SETUP                      :
          :.................................................:
          :  # basis functions                 245          :
          :  # atomic orbitals                 244          :
          :  # shells                          146          :
          :  # electrons                       256          :
          :  max. iterations                   250          :
          :  Hamiltonian                  GFN2-xTB          :
          :  restarted?                       true          :
          :  GBSA solvation                   true          :
          :  PC potential                    false          :
          :  electronic temp.          300.0000000     K    :
          :  accuracy                    1.0000000          :
          :  -> integral cutoff          0.2500000E+02      :
          :  -> integral neglect         0.1000000E-07      :
          :  -> SCF convergence          0.1000000E-05 Eh   :
          :  -> wf. convergence          0.1000000E-03 e    :
          :  Broyden damping             0.4000000          :
          ...................................................

 iter      E             dE          RMSdq      gap      omega  full diag
   1   -141.6793890 -0.141679E+03  0.261E-05    0.89       0.0  T
   2   -141.6793890  0.486295E-10  0.313E-05    0.89     322.7  T
   3   -141.6793890 -0.526938E-10  0.192E-05    0.89     525.4  T

   *** convergence criteria satisfied after 3 iterations ***

         #    Occupation            Energy/Eh            Energy/eV
      -------------------------------------------------------------
         1        2.0000           -0.6754967             -18.3812
       ...           ...                  ...                  ...
       122        2.0000           -0.3559714              -9.6865
       123        2.0000           -0.3452568              -9.3949
       124        2.0000           -0.3338106              -9.0834
       125        2.0000           -0.3229137              -8.7869
       126        2.0000           -0.3190459              -8.6817
       127        2.0000           -0.3124563              -8.5024
       128        2.0000           -0.3097531              -8.4288 (HOMO)
       129                         -0.2770101              -7.5378 (LUMO)
       130                         -0.2494565              -6.7881
       131                         -0.2465579              -6.7092
       132                         -0.2243771              -6.1056
       133                         -0.2140394              -5.8243
       ...                                ...                  ...
       244                          3.7689503             102.5584
      -------------------------------------------------------------
                  HL-Gap            0.0327430 Eh            0.8910 eV
             Fermi-level           -0.2933548 Eh           -7.9826 eV

 SCC (total)                   0 d,  0 h,  0 min,  0.100 sec
 SCC setup                      ...        0 min,  0.003 sec (  3.037%)
 Dispersion                     ...        0 min,  0.002 sec (  2.097%)
 classical contributions        ...        0 min,  0.000 sec (  0.139%)
 integral evaluation            ...        0 min,  0.026 sec ( 25.735%)
 iterations                     ...        0 min,  0.031 sec ( 30.612%)
 molecular gradient             ...        0 min,  0.038 sec ( 37.776%)
 printout                       ...        0 min,  0.001 sec (  0.548%)

         :::::::::::::::::::::::::::::::::::::::::::::::::::::
         ::                     SUMMARY                     ::
         :::::::::::::::::::::::::::::::::::::::::::::::::::::
         :: total energy            -139.873330892387 Eh    ::
         :: total w/o Gsasa/hb      -139.835202433789 Eh    ::
         :: gradient norm              0.031984708438 Eh/a0 ::
         :: HOMO-LUMO gap              0.890982049310 eV    ::
         ::.................................................::
         :: SCC energy              -141.679388978351 Eh    ::
         :: -> isotropic ES            0.242256928327 Eh    ::
         :: -> anisotropic ES          0.011117912606 Eh    ::
         :: -> anisotropic XC          0.051272453549 Eh    ::
         :: -> dispersion             -0.137100197460 Eh    ::
         :: -> Gsolv                  -0.047540547057 Eh    ::
         ::    -> Gelec               -0.009412088460 Eh    ::
         ::    -> Gsasa               -0.040995309801 Eh    ::
         ::    -> Ghb                 -0.002457964241 Eh    ::
         ::    -> Gshift               0.005324815444 Eh    ::
         :: repulsion energy           1.797538174071 Eh    ::
         :: add. restraining           0.000000000000 Eh    ::
         :: total charge               0.000000000001 e     ::
         :::::::::::::::::::::::::::::::::::::::::::::::::::::

           -------------------------------------------------
          |                Property Printout                |
           -------------------------------------------------

    * Orbital Energies and Occupations

         #    Occupation            Energy/Eh            Energy/eV
      -------------------------------------------------------------
         1        2.0000           -0.6754967             -18.3812
       ...           ...                  ...                  ...
       116        2.0000           -0.3971325             -10.8065
       117        2.0000           -0.3898648             -10.6088
       118        2.0000           -0.3872933             -10.5388
       119        2.0000           -0.3862625             -10.5107
       120        2.0000           -0.3831685             -10.4265
       121        2.0000           -0.3806848             -10.3590
       122        2.0000           -0.3559714              -9.6865
       123        2.0000           -0.3452568              -9.3949
       124        2.0000           -0.3338106              -9.0834
       125        2.0000           -0.3229137              -8.7869
       126        2.0000           -0.3190459              -8.6817
       127        2.0000           -0.3124563              -8.5024
       128        2.0000           -0.3097531              -8.4288 (HOMO)
       129                         -0.2770101              -7.5378 (LUMO)
       130                         -0.2494565              -6.7881
       131                         -0.2465579              -6.7092
       132                         -0.2243771              -6.1056
       133                         -0.2140394              -5.8243
       134                         -0.2058642              -5.6018
       135                         -0.1881908              -5.1209
       136                         -0.1514168              -4.1203
       137                         -0.1278334              -3.4785
       138                         -0.1240467              -3.3755
       139                         -0.1123991              -3.0585
       ...                                ...                  ...
       244                          3.7689503             102.5584
      -------------------------------------------------------------
                  HL-Gap            0.0327430 Eh            0.8910 eV
             Fermi-level           -0.2933548 Eh           -7.9826 eV

     #   Z          covCN         q      C6AA      α(0)
     1   7 N        2.553    -0.124    23.731     7.235
     2   6 C        2.954     0.075    26.327     8.416
     3   6 C        2.918    -0.044    29.104     8.847
     4   6 C        2.923    -0.023    28.568     8.765
     5   6 C        2.915    -0.045    29.112     8.848
     6   6 C        2.892     0.048    26.930     8.508
     7   1 H        0.926     0.053     2.279     2.361
     8   1 H        0.926     0.056     2.251     2.346
     9   1 H        0.926     0.046     2.373     2.409
    10   6 C        2.953     0.072    26.393     8.426
    11   7 N        2.535    -0.137    24.013     7.277
    12   6 C        2.890     0.041    27.069     8.530
    13   6 C        2.915    -0.046    29.139     8.852
    14   6 C        2.922    -0.025    28.639     8.776
    15   6 C        2.918    -0.046    29.132     8.851
    16   1 H        0.926     0.043     2.403     2.424
    17   1 H        0.926     0.048     2.342     2.393
    18   1 H        0.926     0.074     2.043     2.235
    19  77 Ir       5.931    -0.149   387.368    36.396
    20   1 H        0.977     0.090     1.875     2.140
    21   5 B        2.633     0.406    15.975     6.750
    22   8 O        1.638    -0.406    20.974     6.182
    23   6 C        3.836     0.130    18.452     6.111
    24   6 C        3.755    -0.122    22.886     6.821
    25   1 H        0.925     0.054     2.274     2.358
    26   1 H        0.925     0.045     2.385     2.415
    27   1 H        0.925     0.052     2.299     2.371
    28   6 C        3.754    -0.109    22.636     6.784
    29   1 H        0.925     0.047     2.353     2.399
    30   1 H        0.925     0.042     2.427     2.436
    31   1 H        0.925     0.027     2.634     2.538
    32   6 C        3.842     0.131    18.433     6.107
    33   8 O        1.637    -0.406    20.966     6.181
    34   6 C        3.755    -0.122    22.895     6.823
    35   1 H        0.925     0.053     2.282     2.363
    36   1 H        0.925     0.046     2.369     2.407
    37   1 H        0.925     0.050     2.319     2.381
    38   6 C        3.754    -0.120    22.849     6.816
    39   1 H        0.925     0.046     2.377     2.411
    40   1 H        0.925     0.054     2.276     2.359
    41   1 H        0.925     0.045     2.377     2.411
    42   5 B        2.621     0.402    16.077     6.783
    43   8 O        1.637    -0.386    20.593     6.126
    44   6 C        3.834     0.129    18.470     6.114
    45   6 C        3.755    -0.128    23.010     6.840
    46   1 H        0.925     0.058     2.223     2.331
    47   1 H        0.925     0.057     2.237     2.339
    48   1 H        0.925     0.050     2.323     2.384
    49   6 C        3.755    -0.122    22.886     6.821
    50   1 H        0.925     0.048     2.342     2.393
    51   1 H        0.925     0.047     2.352     2.398
    52   1 H        0.925     0.051     2.303     2.373
    53   6 C        3.831     0.128    18.485     6.117
    54   8 O        1.637    -0.384    20.559     6.120
    55   6 C        3.755    -0.124    22.927     6.827
    56   1 H        0.925     0.053     2.287     2.365
    57   1 H        0.925     0.053     2.282     2.362
    58   1 H        0.925     0.049     2.336     2.390
    59   6 C        3.755    -0.124    22.943     6.830
    60   1 H        0.925     0.050     2.323     2.383
    61   1 H        0.925     0.053     2.284     2.363
    62   1 H        0.925     0.049     2.334     2.389
    63   5 B        2.629     0.403    16.031     6.765
    64   8 O        1.637    -0.374    20.369     6.092
    65   6 C        3.835     0.125    18.531     6.124
    66   6 C        3.755    -0.133    23.108     6.854
    67   1 H        0.925     0.058     2.221     2.330
    68   1 H        0.925     0.058     2.228     2.334
    69   1 H        0.925     0.052     2.295     2.369
    70   6 C        3.755    -0.130    23.053     6.846
    71   1 H        0.925     0.061     2.183     2.310
    72   1 H        0.925     0.051     2.304     2.374
    73   1 H        0.925     0.053     2.283     2.363
    74   6 C        3.831     0.127    18.497     6.119
    75   8 O        1.637    -0.378    20.434     6.102
    76   6 C        3.755    -0.125    22.961     6.832
    77   1 H        0.925     0.052     2.299     2.371
    78   1 H        0.925     0.053     2.278     2.360
    79   1 H        0.925     0.057     2.237     2.339
    80   6 C        3.755    -0.122    22.903     6.824
    81   1 H        0.925     0.041     2.442     2.444
    82   1 H        0.925     0.049     2.331     2.388
    83   1 H        0.925     0.055     2.256     2.349
    84   1 H        0.926     0.052     2.294     2.369
    85   1 H        0.926     0.047     2.357     2.401
    86   6 C        2.825    -0.043    29.062     8.834
    87   6 C        2.941    -0.015    28.391     8.739
    88   6 C        2.948     0.099    25.815     8.333
    89   6 C        2.909    -0.056    29.391     8.890
    90   1 H        0.925     0.024     2.677     2.558
    91   7 N        1.844    -0.259    27.586     7.784
    92   6 C        3.762    -0.145    23.350     6.888
    93   6 C        2.897     0.043    27.040     8.526
    94   1 H        0.926     0.024     2.677     2.559
    95   1 H        0.925     0.068     2.107     2.270
    96   1 H        0.925     0.076     2.021     2.223
    97   1 H        0.925     0.070     2.087     2.259
    98   1 H        0.925     0.028     2.621     2.532

 Mol. C6AA /au·bohr⁶  :     101121.709356
 Mol. C8AA /au·bohr⁸  :    2689309.619826
 Mol. α(0) /au        :        492.565060


Wiberg/Mayer (AO) data.
largest (>0.10) Wiberg bond orders for each atom

 ---------------------------------------------------------------------------
     #   Z sym  total        # sym  WBO       # sym  WBO       # sym  WBO
 ---------------------------------------------------------------------------
     1   7 N    3.402 --     6 C    1.387     2 C    1.310    19 Ir   0.444
     2   6 C    3.979 --     3 C    1.344     1 N    1.310    10 C    1.095
     3   6 C    3.987 --     4 C    1.487     2 C    1.344     9 H    0.962
                             6 C    0.106
     4   6 C    3.979 --     3 C    1.487     5 C    1.378    84 H    0.969
     5   6 C    3.978 --     6 C    1.463     4 C    1.378     8 H    0.968
     6   6 C    3.978 --     5 C    1.463     1 N    1.387     7 H    0.957
                             3 C    0.106
     7   1 H    0.997 --     6 C    0.957
     8   1 H    0.996 --     5 C    0.968
     9   1 H    0.997 --     3 C    0.962
    10   6 C    3.978 --    15 C    1.350    11 N    1.300     2 C    1.095
    11   7 N    3.381 --    12 C    1.383    10 C    1.300    19 Ir   0.408
    12   6 C    3.973 --    13 C    1.462    11 N    1.383    18 H    0.948
                            15 C    0.105
    13   6 C    3.982 --    12 C    1.462    14 C    1.380    17 H    0.969
    14   6 C    3.982 --    15 C    1.481    13 C    1.380    85 H    0.969
    15   6 C    3.989 --    14 C    1.481    10 C    1.350    16 H    0.962
                            12 C    0.105
    16   1 H    0.998 --    15 C    0.962
    17   1 H    0.997 --    13 C    0.969
    18   1 H    0.994 --    12 C    0.948
    19  77 Ir   5.152 --    63 B    0.877    42 B    0.858    21 B    0.714
                            86 C    0.579    20 H    0.530     1 N    0.444
                            11 N    0.408
    20   1 H    0.989 --    19 Ir   0.530    86 C    0.352
    21   5 B    3.271 --    33 O    1.108    22 O    1.096    19 Ir   0.714
    22   8 O    2.195 --    21 B    1.096    23 C    0.942
    23   6 C    3.943 --    24 C    0.996    28 C    0.990    22 O    0.942
                            32 C    0.941
    24   6 C    3.994 --    23 C    0.996    26 H    0.984    27 H    0.983
                            25 H    0.983
    25   1 H    0.997 --    24 C    0.983
    26   1 H    0.997 --    24 C    0.984
    27   1 H    0.997 --    24 C    0.983
    28   6 C    3.997 --    23 C    0.990    31 H    0.985    30 H    0.984
                            29 H    0.984
    29   1 H    0.997 --    28 C    0.984
    30   1 H    0.998 --    28 C    0.984
    31   1 H    0.999 --    28 C    0.985
    32   6 C    3.940 --    38 C    0.997    34 C    0.991    23 C    0.941
                            33 O    0.938
    33   8 O    2.198 --    21 B    1.108    32 C    0.938
    34   6 C    3.994 --    32 C    0.991    36 H    0.984    37 H    0.982
                            35 H    0.981
    35   1 H    0.997 --    34 C    0.981
    36   1 H    0.997 --    34 C    0.984
    37   1 H    0.997 --    34 C    0.982
    38   6 C    3.994 --    32 C    0.997    41 H    0.984    39 H    0.983
                            40 H    0.983
    39   1 H    0.998 --    38 C    0.983
    40   1 H    0.997 --    38 C    0.983
    41   1 H    0.997 --    38 C    0.984
    42   5 B    3.333 --    54 O    1.110    43 O    1.108    19 Ir   0.858
    43   8 O    2.224 --    42 B    1.108    44 C    0.936
    44   6 C    3.937 --    45 C    0.997    49 C    0.991    53 C    0.939
                            43 O    0.936
    45   6 C    3.992 --    44 C    0.997    48 H    0.983    47 H    0.982
                            46 H    0.981
    46   1 H    0.997 --    45 C    0.981
    47   1 H    0.997 --    45 C    0.982
    48   1 H    0.996 --    45 C    0.983
    49   6 C    3.994 --    44 C    0.991    50 H    0.983    51 H    0.983
                            52 H    0.980
    50   1 H    0.997 --    49 C    0.983
    51   1 H    0.997 --    49 C    0.983
    52   1 H    0.997 --    49 C    0.980
    53   6 C    3.937 --    55 C    0.996    59 C    0.992    44 C    0.939
                            54 O    0.933
    54   8 O    2.228 --    42 B    1.110    53 C    0.933
    55   6 C    3.993 --    53 C    0.996    58 H    0.983    57 H    0.983
                            56 H    0.983
    56   1 H    0.997 --    55 C    0.983
    57   1 H    0.997 --    55 C    0.983
    58   1 H    0.996 --    55 C    0.983
    59   6 C    3.994 --    53 C    0.992    62 H    0.983    61 H    0.983
                            60 H    0.982
    60   1 H    0.997 --    59 C    0.982
    61   1 H    0.996 --    59 C    0.983
    62   1 H    0.997 --    59 C    0.983
    63   5 B    3.367 --    75 O    1.120    64 O    1.114    19 Ir   0.877
    64   8 O    2.229 --    63 B    1.114    65 C    0.936
    65   6 C    3.937 --    70 C    0.997    66 C    0.991    74 C    0.939
                            64 O    0.936
    66   6 C    3.992 --    65 C    0.991    69 H    0.983    68 H    0.982
                            67 H    0.979
    67   1 H    0.997 --    66 C    0.979
    68   1 H    0.996 --    66 C    0.982
    69   1 H    0.996 --    66 C    0.983
    70   6 C    3.992 --    65 C    0.997    72 H    0.983    73 H    0.982
                            71 H    0.982
    71   1 H    0.996 --    70 C    0.982
    72   1 H    0.996 --    70 C    0.983
    73   1 H    0.997 --    70 C    0.982
    74   6 C    3.935 --    76 C    0.996    80 C    0.991    65 C    0.939
                            75 O    0.934
    75   8 O    2.237 --    63 B    1.120    74 C    0.934
    76   6 C    3.992 --    74 C    0.996    77 H    0.983    78 H    0.982
                            79 H    0.982
    77   1 H    0.996 --    76 C    0.983
    78   1 H    0.997 --    76 C    0.982
    79   1 H    0.997 --    76 C    0.982
    80   6 C    3.995 --    74 C    0.991    81 H    0.984    82 H    0.983
                            83 H    0.983
    81   1 H    0.998 --    80 C    0.984
    82   1 H    0.997 --    80 C    0.983
    83   1 H    0.996 --    80 C    0.983
    84   1 H    0.996 --     4 C    0.969
    85   1 H    0.997 --    14 C    0.969
    86   6 C    3.948 --    87 C    1.410    88 C    1.322    19 Ir   0.579
                            20 H    0.352    93 C    0.104
    87   6 C    3.991 --    89 C    1.414    86 C    1.410    90 H    0.961
    88   6 C    3.975 --    91 N    1.421    86 C    1.322    92 C    1.026
                            89 C    0.102
    89   6 C    3.988 --    93 C    1.437    87 C    1.414    94 H    0.969
                            88 C    0.102
    90   1 H    0.999 --    87 C    0.961
    91   7 N    3.057 --    88 C    1.421    93 C    1.414
    92   6 C    3.990 --    88 C    1.026    95 H    0.983    97 H    0.960
                            96 H    0.952
    93   6 C    3.980 --    89 C    1.437    91 N    1.414    98 H    0.963
                            86 C    0.104
    94   1 H    0.999 --    89 C    0.969
    95   1 H    0.995 --    92 C    0.983
    96   1 H    0.994 --    92 C    0.952
    97   1 H    0.995 --    92 C    0.960
    98   1 H    0.996 --    93 C    0.963
 ---------------------------------------------------------------------------

Topologies differ in total number of bonds
Writing topology from bond orders to xtbtopo.mol

molecular dipole:
                 x           y           z       tot (Debye)
 q only:        0.634       0.264      -1.466
   full:       -1.032       0.547      -2.225       6.387
molecular quadrupole (traceless):
                xx          xy          yy          xz          yz          zz
 q only:       19.440      -0.169       2.101       3.542      14.283     -21.542
  q+dip:       23.310       3.439       3.730      -1.552      20.164     -27.040
   full:       20.755       4.440       5.799      -3.984      17.313     -26.555


           -------------------------------------------------
          | TOTAL ENERGY             -139.873330892387 Eh   |
          | GRADIENT NORM               0.031984708438 Eh/α |
          | HOMO-LUMO GAP               0.890982049310 eV   |
           -------------------------------------------------

------------------------------------------------------------------------
 * finished run on 2021/10/08 at 07:15:46.674     
------------------------------------------------------------------------
 total:
 * wall-time:     0 d,  0 h,  0 min,  0.138 sec
 *  cpu-time:     0 d,  0 h,  0 min,  0.804 sec
 * ratio c/w:     5.838 speedup
 SCF:
 * wall-time:     0 d,  0 h,  0 min,  0.101 sec
 *  cpu-time:     0 d,  0 h,  0 min,  0.604 sec
 * ratio c/w:     5.960 speedup

