98
 energy: -139.844000154461 gnorm: 0.082571737076 xtb: 6.4.0 (f63f532)
N        -0.96510000000000   -2.11530000000001   -0.24090000000000
C        -2.24699999999999   -1.69840000000000   -0.36219999999999
C        -3.14040000000000   -2.36820000000000   -1.21199999999999
C        -2.70219999999999   -3.47559999999999   -1.93050000000001
C        -1.37780000000001   -3.89880000000001   -1.78759999999998
C        -0.54290000000000   -3.18670000000001   -0.93510000000002
H         0.49810000000000   -3.45630000000000   -0.78940000000000
H        -0.99570000000000   -4.76030000000000   -2.32770000000000
H        -4.16500000000000   -2.02890000000000   -1.31830000000000
C        -2.62130000000000   -0.50950000000000    0.44100000000000
N        -1.62600000000000    0.07330000000000    1.16020000000000
C        -1.89680000000001    1.15240000000000    1.91690000000000
C        -3.17230000000000    1.70330000000000    1.99650000000000
C        -4.20510000000000    1.11740000000001    1.26270000000000
C        -3.92610000000000    0.00250000000000    0.47820000000000
H        -4.71960000000000   -0.46420000000000   -0.09520000000000
H        -3.34630000000000    2.57510000000000    2.62070000000000
H        -1.04450000000000    1.57420000000000    2.43690000000000
Ir        0.42150000000000   -0.81650000000000    0.91330000000000
H         0.87260000000000   -2.23030000000000    1.54050000000000
B         0.50670000000000    0.41560000000001   -0.81540000000000
O         0.19500000000000   -0.04700000000001   -2.09150000000000
C         0.00650000000000    1.10040000000000   -2.95430000000000
C         0.49020000000001    0.74740000000000   -4.35780000000000
H         1.51610000000000    0.37380000000000   -4.33700000000000
H         0.44730000000000    1.62240000000000   -5.01669999999999
H        -0.14740000000001   -0.03390000000000   -4.78430000000000
C        -1.50120000000001    1.39560000000000   -2.96669999999999
H        -1.75370000000000    2.21460000000000   -3.64850000000000
H        -2.03200000000000    0.49450000000000   -3.28930000000000
H        -1.85170000000000    1.65210000000000   -1.96220000000000
C         0.84230000000000    2.20670000000001   -2.22040000000000
O         0.75200000000000    1.78260000000000   -0.83690000000000
C         2.32930000000000    2.18620000000001   -2.59899999999999
H         2.74130000000000    1.18500000000000   -2.45750000000000
H         2.48870000000000    2.51300000000000   -3.63180000000001
H         2.87200000000000    2.86270000000000   -1.93200000000000
C         0.28440000000001    3.62289999999999   -2.33659999999999
H        -0.72650000000000    3.69040000000000   -1.92910000000000
H         0.92130000000000    4.31480000000000   -1.77610000000001
H         0.26430000000000    3.94810000000000   -3.38320000000000
B         1.56300000000000    0.60960000000000    1.84840000000000
O         2.92780000000000    0.55230000000000    2.15020000000000
C         3.36329999999999    1.88660000000000    2.50260000000000
C         4.53140000000000    1.78590000000000    3.47740000000000
H         4.27910000000000    1.16090000000000    4.33690000000000
H         5.39390000000000    1.33790000000000    2.97340000000000
H         4.82390000000000    2.77870000000000    3.83820000000000
C         3.79700000000000    2.56850000000000    1.19670000000000
H         4.20020000000000    3.57090000000000    1.37680000000000
H         4.56740000000000    1.95560000000000    0.72110000000000
H         2.95240000000000    2.63260000000000    0.50540000000000
C         2.05040000000000    2.50089999999999    3.09320000000001
O         1.03750000000000    1.81620000000000    2.31910000000000
C         1.89100000000000    4.00450000000000    2.88650000000002
H         1.87290000000000    4.25440000000000    1.82409999999999
H         0.94940000000000    4.34260000000000    3.33170000000000
H         2.71080000000000    4.55150000000000    3.36630000000000
C         1.82470000000000    2.13199999999999    4.56520000000002
H         1.92610000000000    1.05330000000001    4.71320000000000
H         2.52610000000000    2.65280000000000    5.22540000000000
H         0.80630000000000    2.41580000000000    4.84900000000000
B         2.27820000000000   -1.33090000000000    0.17410000000000
O         2.89460000000000   -2.57740000000000    0.38450000000000
C         4.26930000000000   -2.48200000000000   -0.07210000000000
C         5.10900000000000   -2.05380000000001    1.14010000000001
H         4.76350000000000   -1.08740000000000    1.51750000000000
H         4.98050000000000   -2.79470000000000    1.93590000000000
H         6.17420000000000   -1.99290000000000    0.89300000000000
C         4.71950000000000   -3.84660000000000   -0.58470000000000
H         4.75280000000000   -4.56130000000000    0.24419999999999
H         5.72330000000000   -3.78370000000000   -1.02010000000000
H         4.03500000000000   -4.23600000000000   -1.34170000000000
C         4.16440000000000   -1.36220000000001   -1.16300000000000
O         3.08520000000000   -0.55030000000000   -0.65400000000000
C         5.40720000000000   -0.48870000000000   -1.31550000000000
H         6.27320000000000   -1.09010000000000   -1.61530000000000
H         5.23300000000000    0.26930000000000   -2.08590000000000
H         5.64270000000000    0.02650000000000   -0.38240000000000
C         3.71800000000000   -1.89830000000001   -2.53110000000001
H         2.82530000000000   -2.52160000000000   -2.42740000000000
H         3.46090000000000   -1.05249999999999   -3.17550000000000
H         4.50570000000000   -2.48290000000000   -3.01790000000000
H        -3.38500000000000   -4.00130000000000   -2.59310000000000
H        -5.21400000000000    1.52080000000000    1.29960000000000
C         0.23590000000000   -1.68140000000000    2.96030000000000
C        -0.93228354219099   -2.27577031839824    3.43601792357298
C         1.31309582372480   -1.74430817124806    3.88139299185481
C        -1.05757654056252   -2.69676922195406    4.75654356483831
H        -1.75303432160900   -2.47405718320085    2.75727706066684
N         1.16235681715853   -2.02977504746731    5.17965759936795
C         2.77921516926879   -1.66431108072979    3.57668657655252
C        -0.00356314633012   -2.47915711959431    5.62313883694816
H        -1.93322771482207   -3.23151842154144    5.09695849364290
H         3.28929779372112   -2.46770283053133    4.11039106966435
H         3.20551973688298   -0.73134196778424    3.94118769318575
H         2.96658309752906   -1.73267124601502    2.51263881234851
H        -0.02216261655856   -2.74010384607436    6.67519343039458
98
 energy: -139.853737430375 gnorm: 0.052457909705 xtb: 6.4.0 (f63f532)
N        -0.96199080359789   -2.10396310500281   -0.24759679546769
C        -2.24031220466523   -1.69350518984329   -0.36029128466429
C        -3.13446758642378   -2.36494827340978   -1.20352105512158
C        -2.70360046314519   -3.46603562297168   -1.91995723118365
C        -1.38325982612624   -3.88453349015997   -1.78141255676051
C        -0.55348839210404   -3.17039555349421   -0.93890437981053
H         0.48082848080766   -3.44945603137418   -0.79050859140298
H        -1.00635754417165   -4.74394484505204   -2.31757030108450
H        -4.15523500579903   -2.02993464505278   -1.30742373073215
C        -2.61219552181461   -0.51732158370842    0.44148649228020
N        -1.62018965055887    0.06189825125660    1.15474449357996
C        -1.89795337349962    1.13501868571813    1.89989382331172
C        -3.16466926186377    1.68517138648588    1.98721240111626
C        -4.19620191854260    1.10071775981227    1.26076319936146
C        -3.91498446012532   -0.00617839669182    0.48062950393942
H        -4.70659347356995   -0.46896506701247   -0.08869795899203
H        -3.33931446298491    2.54928161804889    2.61308838758048
H        -1.05429186013260    1.55510988222418    2.42699753053540
Ir        0.42150000000000   -0.81650000000000    0.91330000000000
H         0.87260000000000   -2.23030000000000    1.54050000000000
B         0.49145768634469    0.42344204941178   -0.79117174878050
O         0.17505727574523   -0.03561456819385   -2.06341740423582
C         0.00767690604015    1.09660414398362   -2.94324622672760
C         0.48574472737863    0.74789493408037   -4.34892294068745
H         1.50518951327942    0.37226823204792   -4.32864607398329
H         0.43969528877005    1.62328887180936   -4.99744603886265
H        -0.15250003339603   -0.02859762909214   -4.76933879535512
C        -1.49712896568591    1.39749892896293   -2.96718389694583
H        -1.73801406069565    2.21061783942153   -3.65030410605007
H        -2.02699817504601    0.50011998085066   -3.28693670641254
H        -1.84327216855516    1.65160960592327   -1.96506565592219
C         0.82979574209956    2.20688545538213   -2.21254101353095
O         0.75393298616805    1.77956019327024   -0.83551182383948
C         2.31254361059302    2.19157435543558   -2.60035366150549
H         2.71795941890655    1.19270793536825   -2.45156065004240
H         2.46410029075332    2.51386545826569   -3.62985661738342
H         2.85471728147365    2.86610154171375   -1.93862004148290
C         0.27706624083147    3.62280704311667   -2.33803519686042
H        -0.72622659855103    3.69075936674078   -1.92537770628509
H         0.91613715268174    4.30672818650682   -1.78093747434106
H         0.25853541075928    3.93659999604670   -3.38185248961964
B         1.55995407940307    0.64090744805101    1.83164162064179
O         2.92640916884588    0.60674378517064    2.07832536205737
C         3.36212740085763    1.91207965189089    2.49522113009357
C         4.53111042891081    1.79802419135640    3.46847296237883
H         4.27921121811026    1.17052933104397    4.31991029859351
H         5.38567840632840    1.35069785446639    2.96251880291989
H         4.81897855079212    2.78414341875854    3.83106042544545
C         3.80191166431088    2.59758042732749    1.19988191534700
H         4.20541786963123    3.59103435731496    1.38504621194256
H         4.56360803034845    1.97906605506520    0.72718022993835
H         2.95310526554000    2.64623708078936    0.51916586483003
C         2.04970335659215    2.51336025672272    3.08700558766757
O         1.03311006679813    1.82220842761287    2.33396114730596
C         1.89031499171724    4.01475092647748    2.89093216773417
H         1.86489241670759    4.25800225409066    1.83247091946075
H         0.95295150495061    4.34194199395982    3.33867757478550
H         2.71207711403355    4.54887180433067    3.36708766132970
C         1.83223262079314    2.14191138863934    4.55912689540059
H         1.93147443106448    1.06640586439332    4.69958022217758
H         2.53362075035230    2.66091724081926    5.20997820587762
H         0.81849674732201    2.41980729928259    4.84695953695977
B         2.27820000000002   -1.33090000000001    0.17410000000002
O         2.90436078403087   -2.56245111842652    0.38269807813709
C         4.26995619022143   -2.48175687641295   -0.08464490496545
C         5.12428888435043   -2.05670601129847    1.11503947242607
H         4.77923024525736   -1.09282658112766    1.48578711506914
H         4.99632771332532   -2.78994425784312    1.91041424792344
H         6.18038835104591   -2.00091806102084    0.85855345282296
C         4.72260284458482   -3.84458192939015   -0.59361013205333
H         4.75280573532659   -4.54786522997991    0.23747095228040
H         5.71999807087717   -3.77352454991179   -1.02634411503612
H         4.03592439999994   -4.23246904766066   -1.34122019428609
C         4.16541673847953   -1.35742736645991   -1.16226732634188
O         3.07300233391961   -0.56268056091703   -0.66178930826789
C         5.40799079963270   -0.48814084096399   -1.31951037295612
H         6.26434803314264   -1.09302485896087   -1.61649673657259
H         5.22869419273097    0.26357762310542   -2.08694965575005
H         5.63636895382539    0.02549644932241   -0.39009027431176
C         3.72621988684985   -1.89661630760428   -2.52965838057128
H         2.83483598613624   -2.51308358745945   -2.42030118650698
H         3.46749783379000   -1.05511442047874   -3.17095546184127
H         4.51576265784484   -2.47331767631424   -3.00865433755586
H        -3.38283960457861   -3.99093286896427   -2.57810552770300
H        -5.20019945705043    1.50229728739495    1.30111044922697
C         0.23590000000003   -1.68139999999996    2.96029999999999
C        -0.95010777280126   -2.25494716112450    3.42391390169656
C         1.30261880736753   -1.75667530352619    3.89810837721273
C        -1.09320703253745   -2.67432648391904    4.74391402190787
H        -1.77029975303424   -2.43780782722652    2.74068325310686
N         1.13039966487611   -2.04182884592112    5.18894294303478
C         2.76674058704506   -1.69030853907851    3.59237058004794
C        -0.04191590485332   -2.47269238132638    5.61737353729845
H        -1.97908398196880   -3.19529501209337    5.07690104134692
H         3.26514295863096   -2.50046289213959    4.12185255712124
H         3.19837663945844   -0.76336343160780    3.95707617395574
H         2.94822165738426   -1.75788854294515    2.53190620399987
H        -0.07476387973063   -2.73443644779301    6.66812004756024
98
 energy: -139.858251110662 gnorm: 0.041665616645 xtb: 6.4.0 (f63f532)
N        -0.95463170773614   -2.09956101409467   -0.25128287630395
C        -2.23101405360548   -1.69144833149072   -0.35745993196842
C        -3.12975895578811   -2.36190324999644   -1.19560953713225
C        -2.70667216682493   -3.45858722770757   -1.91397345072542
C        -1.38655415629940   -3.87605961333173   -1.78047117866080
C        -0.55803325321797   -3.16227244659165   -0.94276836680368
H         0.47462097453706   -3.44543094238712   -0.80192070261633
H        -1.01499180049853   -4.73392949566845   -2.31555736940301
H        -4.14912392292486   -2.02879916897209   -1.29159909862059
C        -2.59954061091999   -0.52540737324157    0.44111915205264
N        -1.61019522344415    0.04968587914027    1.15414513534628
C        -1.89482186285022    1.11636305497270    1.89436925559041
C        -3.15656282888321    1.66699216038522    1.98561151663757
C        -4.18860829403386    1.08285828898273    1.26071690992627
C        -3.90311859811751   -0.01708231698093    0.48106027897711
H        -4.69233297912459   -0.48080569203674   -0.08563565868072
H        -3.33153811683050    2.52684418706009    2.61107129561308
H        -1.05714924955938    1.54176433445025    2.42305754131832
Ir        0.42150000000000   -0.81650000000000    0.91330000000000
H         0.87260000000000   -2.23030000000000    1.54050000000000
B         0.48777479951779    0.43373533427436   -0.76870325168313
O         0.15193514266072   -0.02567974304037   -2.03392593753948
C        -0.00052328529011    1.09379903206797   -2.92378942428703
C         0.48008435709507    0.74281534610094   -4.32840208190367
H         1.49598801999135    0.36513888710790   -4.31106671912383
H         0.43152665208876    1.62186306144433   -4.96556868984611
H        -0.16152008337220   -0.02777937027880   -4.74686099888179
C        -1.50381842513110    1.40238243663374   -2.96432041537079
H        -1.72856534086764    2.21179958780614   -3.65144997865385
H        -2.03219336505459    0.50707101475697   -3.28443098965147
H        -1.85002931428293    1.65780921212885   -1.96514589830299
C         0.81712323374171    2.20687515170902   -2.19969374598426
O         0.75389491308673    1.78250613120168   -0.82825385060866
C         2.29693891107263    2.19815178054990   -2.59892048313548
H         2.69953772452485    1.20108667771244   -2.44398263824872
H         2.43473865874267    2.51433955381293   -3.62861346110539
H         2.83871212294218    2.87633317910313   -1.94487773494561
C         0.26187120914346    3.62137786310411   -2.33301338831173
H        -0.73667758662315    3.69378641169787   -1.91616711991030
H         0.90588019592700    4.30268184082206   -1.78429906299170
H         0.24371634444154    3.91981346228325   -3.37735584822361
B         1.55929892041630    0.65369177498988    1.83745631897639
O         2.92153346493513    0.63092763314943    2.04686417163779
C         3.35830607287453    1.92320737748307    2.48355593314518
C         4.52566448636346    1.80643343731309    3.45916855827995
H         4.27598036109748    1.17927792279905    4.30799691752705
H         5.37510365235119    1.36198393473358    2.94891770573129
H         4.80685530293622    2.79224101260602    3.81679300779067
C         3.80656815869905    2.63829874421335    1.20555515329850
H         4.20890040253303    3.62725230927210    1.39567715726408
H         4.56519048490434    2.02105963430658    0.73221481420233
H         2.95779241973886    2.68092617627475    0.52819269086062
C         2.05019115270311    2.52151311387247    3.08307320769522
O         1.03274910934970    1.81996706767068    2.35089701257022
C         1.88739707331257    4.02356878267660    2.89161100309103
H         1.85298118492707    4.26701222212092    1.83614062327745
H         0.95558364340858    4.34510057699463    3.34722097544002
H         2.71246049407238    4.54823207639753    3.36329989515876
C         1.84620534485894    2.15582682083663    4.55945892501379
H         1.94421839216051    1.08172453950659    4.69379699353797
H         2.55096929333924    2.67586278170342    5.19944987285931
H         0.83512621361358    2.43113542877363    4.84982295016726
B         2.27820000000003   -1.33090000000002    0.17410000000004
O         2.91413057903232   -2.54770542834140    0.39061678094160
C         4.26752130445601   -2.47669131777371   -0.09504578244973
C         5.14370446576681   -2.05648634371706    1.09028317389211
H         4.80417539317368   -1.09204223488774    1.45770970421634
H         5.02208388506935   -2.78528214938090    1.88645176800956
H         6.19115116510384   -2.00842144334281    0.81291104291189
C         4.71806263015979   -3.83933185127219   -0.60740956979615
H         4.75179652483463   -4.53427156957043    0.22617965181749
H         5.71034215349455   -3.75983594172285   -1.04048201237779
H         4.02975116115872   -4.22965951526286   -1.34797609592133
C         4.15916786951256   -1.35271665538280   -1.16741437946929
O         3.05709073238385   -0.57221781980682   -0.67310436693946
C         5.40108096072098   -0.48261919950448   -1.32334617016062
H         6.24951000789514   -1.09362563724363   -1.61614710660129
H         5.22101817600362    0.26258729622861   -2.09228627878756
H         5.62638222664276    0.03244905611403   -0.39729465756872
C         3.73212203347088   -1.89454479654114   -2.53768864657547
H         2.84297833182881   -2.50892719290008   -2.42454195515251
H         3.47423803024808   -1.05529279677872   -3.17810145450304
H         4.52753094416650   -2.46539630537623   -3.00515336445136
H        -3.38680741548945   -3.98351209620878   -2.56597660624091
H        -5.19077986213428    1.48028190087763    1.30511525484653
C         0.23590000000008   -1.68139999999993    2.96029999999999
C        -0.97535131265208   -2.22151620828426    3.40397506215383
C         1.28690331264385   -1.77023657285441    3.91494050331847
C        -1.14993157403124   -2.63342831009398    4.72302967310626
H        -1.79390620845716   -2.37799226279500    2.71155029345987
N         1.08625802745694   -2.05688255142997    5.19791602876905
C         2.74871459072385   -1.70133537824465    3.60224664935699
C        -0.10122713618895   -2.46033215257676    5.60706803678365
H        -2.05689623755386   -3.12573801951925    5.04491086587861
H         3.24178608323767   -2.51623659057486    4.12834174375200
H         3.18246603490655   -0.77489654486543    3.96237128585493
H         2.92202126360266   -1.77032766337595    2.54173696795139
H        -0.15987500612573   -2.72007559577619    6.65763098759600
98
 energy: -139.861408408916 gnorm: 0.039853917047 xtb: 6.4.0 (f63f532)
N        -0.94323136851354   -2.09803866408578   -0.26030870477582
C        -2.22123262463720   -1.69190205892232   -0.35789296938725
C        -3.12643305978740   -2.36282713777281   -1.19017827821332
C        -2.70967124574112   -3.45821509859811   -1.91187231385639
C        -1.38683469344143   -3.87497520421783   -1.78657790464426
C        -0.55387098324164   -3.15966980258825   -0.95462517438100
H         0.47913244040129   -3.44646628369643   -0.82147919947430
H        -1.01976417692015   -4.73270769799666   -2.32309235185195
H        -4.14624762713541   -2.02920115543233   -1.27688141625158
C        -2.58759443450619   -0.53197435941000    0.44112089272936
N        -1.59839510265676    0.04350762047647    1.15433442151672
C        -1.88789888867867    1.10684506629257    1.89518576300149
C        -3.15018328320363    1.65418680136127    1.99042862481895
C        -4.18344869230757    1.06780781462526    1.26543455849009
C        -3.89369445963790   -0.02779695664324    0.48353495131102
H        -4.68032718967534   -0.49372182278323   -0.08438397751615
H        -3.32669631919686    2.51079600446528    2.61800522893461
H        -1.05450723961011    1.53535921656623    2.42849201866204
Ir        0.42150000000001   -0.81649999999999    0.91330000000000
H         0.87260000000001   -2.23030000000000    1.54050000000000
B         0.47608257998529    0.44808413925552   -0.74761666558133
O         0.12603921886656   -0.01676922978222   -2.00706230144486
C        -0.01460659589911    1.09328316913093   -2.90312484991898
C         0.47198658262649    0.73478336248824   -4.30481433598335
H         1.48603731799155    0.35323863485011   -4.28529818991500
H         0.42682158253047    1.61588388864346   -4.93826099500306
H        -0.17288355738789   -0.03236454630059   -4.72362746464385
C        -1.51702783203183    1.40987674878606   -2.95982756020196
H        -1.72681619992405    2.21753427278531   -3.65257399480545
H        -2.04536648156623    0.51574625202973   -3.28207195092431
H        -1.86991005176713    1.67029280009978   -1.96469741544309
C         0.80355561865410    2.20942690377027   -2.18457904383531
O         0.75229824561610    1.79151779047494   -0.81537975705420
C         2.28120097253200    2.20518502784235   -2.59605554157674
H         2.68665328368392    1.21037357011599   -2.43564725927672
H         2.40614799141507    2.51396458525322   -3.62892147579377
H         2.82396277589961    2.89113987607360   -1.95153826283490
C         0.24460175779943    3.62302209390106   -2.32465281327231
H        -0.75129249240172    3.69905734320962   -1.90288262402365
H         0.89305438662985    4.30804523084673   -1.78642429930501
H         0.22163705850392    3.90809973419541   -3.37202799656001
B         1.56129619063241    0.67001482155049    1.82933633707633
O         2.92198680212326    0.65848470111464    2.01184320358615
C         3.35479225207598    1.94120165244254    2.47107393537498
C         4.52287769982578    1.81488337774003    3.44659599709294
H         4.27385208912821    1.18383657620817    4.29211888236406
H         5.37084518908591    1.37381748166064    2.93181092145788
H         4.80126024986339    2.80020509786985    3.80626896374081
C         3.80827275326323    2.67998018045154    1.20561379137889
H         4.20488505577502    3.66615585749006    1.41614310810696
H         4.57325844623765    2.07419641250733    0.72761640655641
H         2.96294994537792    2.73078053408019    0.52501706700240
C         2.04631881136136    2.52986926048615    3.08159952134611
O         1.02740579901002    1.81880864187450    2.36558552349134
C         1.87841379967585    4.03304691795673    2.89202786565395
H         1.83324527405016    4.28005895992799    1.83794135147787
H         0.95189826777050    4.35194286700870    3.35936086906127
H         2.70905746627193    4.55351835403681    3.35731232232443
C         1.86077489861072    2.17003741446805    4.56336487121126
H         1.96086038954156    1.09630554889662    4.69665295290389
H         2.57193717687127    2.69369302543177    5.19209694238743
H         0.85202265738945    2.44491873269878    4.86119723415776
B         2.27820000000006   -1.33090000000002    0.17410000000007
O         2.92342824442279   -2.53710876498532    0.40238643134231
C         4.26539398955666   -2.47058807708202   -0.10409856209356
C         5.16414605684613   -2.05413617285612    1.06740249321745
H         4.83405966809164   -1.08796818150919    1.43802616345305
H         5.05224004789968   -2.78152495460667    1.86546420315219
H         6.20560495127886   -2.01309914378944    0.76746871064754
C         4.70968008585982   -3.83476504954318   -0.62239525116683
H         4.75067018276405   -4.52735487789569    0.21227382976687
H         5.69814173301489   -3.75097447617545   -1.06185653182382
H         4.01686581537583   -4.22664316020514   -1.35751288737730
C         4.14990056682787   -1.34787396236114   -1.17671570324798
O         3.04014337421850   -0.57747012101857   -0.68867826228424
C         5.38964533878652   -0.47249869182690   -1.32985166369867
H         6.23701460488453   -1.08685849918139   -1.61674670220535
H         5.21097044855304    0.26770775699776   -2.10323390710820
H         5.61156794865246    0.04663644948391   -0.40570707434763
C         3.73566004918823   -1.89291477149795   -2.55072179291499
H         2.84853383347118   -2.50982940831997   -2.44093064989538
H         3.48065125104982   -1.05488240114245   -3.19330280501587
H         4.53863763426055   -2.46016658609752   -3.00777820828358
H        -3.39363824342305   -3.98273692378180   -2.55932765681959
H        -5.18664957335551    1.46062318222730    1.31297867908221
C         0.23590000000014   -1.68139999999990    2.96029999999999
C        -1.00355169487306   -2.17874061979359    3.37974606104536
C         1.26757509022940   -1.78655524052853    3.93184681088831
C        -1.21683913578028   -2.57832946234962    4.69726432322852
H        -1.81665032580005   -2.30669416265595    2.67379637983488
N         1.03604906425844   -2.07493250662818    5.20781086801926
C         2.73021169623710   -1.71947874815985    3.62392898949643
C        -0.17265187597276   -2.44230341394369    5.59492045480682
H        -2.15150537236494   -3.03015940255445    5.00639818530462
H         3.22173013980218   -2.53554395961393    4.14956816082058
H         3.16427698402937   -0.79189089734644    3.98008232837824
H         2.90109299052109   -1.79023959809156    2.56253159986785
H        -0.26263847226049   -2.70012416154690    6.64472556715567
98
 energy: -139.864158561529 gnorm: 0.038659446999 xtb: 6.4.0 (f63f532)
N        -0.93227526691285   -2.10047361299883   -0.26908749217987
C        -2.21251920243662   -1.69504130414211   -0.35982831984046
C        -3.12262235669156   -2.36664459081523   -1.18783269998836
C        -2.71019750825732   -3.46120323002652   -1.91329857965745
C        -1.38455587545264   -3.87639249897868   -1.79706929427201
C        -0.54619585185536   -3.16072356571353   -0.96915974777558
H         0.48873561190402   -3.44750239882742   -0.84586791260805
H        -1.02068050555148   -4.73383567736078   -2.33711272566166
H        -4.14359563086349   -2.03258450071786   -1.26568929436839
C        -2.57758430170473   -0.53729219008223    0.44091364606223
N        -1.58780292266551    0.03907332849743    1.15607457746352
C        -1.88077928342097    1.10029892009428    1.90104045811015
C        -3.14524004152163    1.64324424139111    1.99878478297859
C        -4.17878468380949    1.05573465952266    1.27211203094964
C        -3.88555444552312   -0.03575048229306    0.48580477284485
H        -4.67021626966552   -0.50411198214793   -0.08382259055657
H        -3.32368631708452    2.49704891808183    2.63013325452875
H        -1.04964215375069    1.53163942901541    2.43664795240722
Ir        0.42150000000001   -0.81649999999999    0.91330000000001
H         0.87260000000001   -2.23030000000001    1.54050000000000
B         0.46921238274996    0.46263087821869   -0.72952795426113
O         0.09824342062612   -0.00606713102257   -1.98220338071716
C        -0.03291614807112    1.09666414803047   -2.88295703441371
C         0.46076221408449    0.72572231112492   -4.27983670577484
H         1.47246570639280    0.33694835504069   -4.25125151699835
H         0.42582183382355    1.60454889878507   -4.91809223354326
H        -0.18699566521790   -0.03978066696103   -4.69862410693688
C        -1.53401572089868    1.42145587915131   -2.95477151475141
H        -1.73108980367112    2.22759288599344   -3.65372505102321
H        -2.06389084634237    0.52856907068790   -3.27927617632498
H        -1.89740729687436    1.68899113383430   -1.96474089086102
C         0.78929242234465    2.21625476697753   -2.17052611851377
O         0.74944846329025    1.80362818432681   -0.80164707011615
C         2.26491204063021    2.21499946814501   -2.59269959459741
H         2.67651024519744    1.22336459590096   -2.42543004122899
H         2.37959403615187    2.51410107225832   -3.63000542657358
H         2.80918505838057    2.91111757450110   -1.95942901574694
C         0.22555352348956    3.62850918557987   -2.31493347019850
H        -0.76757694095097    3.70633424565078   -1.88558718612509
H         0.87763210699534    4.32057188992886   -1.78874023173492
H         0.19253036939117    3.90384318341375   -3.36537430644592
B         1.56103934474303    0.67338271503712    1.83620664772678
O         2.92501374481484    0.67933605459825    1.98634658370964
C         3.35297452836084    1.95838747089857    2.45882730666559
C         4.52358833431898    1.82293449356944    3.43098509815119
H         4.27532874002915    1.18509005210033    4.27204024921232
H         5.37082337904774    1.38559286583325    2.91064431415566
H         4.80290853805071    2.80642986591470    3.79769000053187
C         3.80736753292641    2.72441973918263    1.20748862481857
H         4.19554486060185    3.70984954131135    1.44367729102329