103
 energy: -147.324588861282 gnorm: 0.001614808318 xtb: 6.4.1 (1a32961)
N        -0.96510000000000   -2.11530000000001   -0.24089999999999
C        -2.24700000000001   -1.69840000000000   -0.36219999999999
C        -3.14040000000001   -2.36820000000001   -1.21199999999999
C        -2.70220000000000   -3.47560000000001   -1.93050000000000
C        -1.37780000000001   -3.89880000000000   -1.78760000000000
C        -0.54290000000000   -3.18670000000002   -0.93509999999999
H         0.49810000000000   -3.45630000000000   -0.78940000000000
H        -0.99570000000000   -4.76029999999999   -2.32770000000000
H        -4.16500000000000   -2.02890000000000   -1.31830000000000
C        -2.62130000000000   -0.50950000000000    0.44100000000000
N        -1.62600000000000    0.07330000000000    1.16020000000000
C        -1.89679999999999    1.15240000000001    1.91690000000001
C        -3.17229999999999    1.70329999999998    1.99649999999999
C        -4.20510000000001    1.11740000000000    1.26270000000001
C        -3.92609999999999    0.00250000000000    0.47820000000000
H        -4.71960000000000   -0.46420000000000   -0.09520000000000
H        -3.34630000000000    2.57509999999999    2.62069999999999
H        -1.04450000000000    1.57420000000000    2.43690000000000
Ir        0.42150000000000   -0.81650000000000    0.91330000000000
H         0.87260000000000   -2.23030000000000    1.54050000000000
B         0.50670000000000    0.41560000000000   -0.81540000000000
O         0.19500000000000   -0.04700000000001   -2.09150000000000
C         0.00649999999999    1.10040000000001   -2.95430000000000
C         0.49020000000001    0.74739999999997   -4.35780000000000
H         1.51610000000000    0.37380000000000   -4.33700000000000
H         0.44730000000000    1.62240000000000   -5.01670000000000
H        -0.14740000000001   -0.03390000000002   -4.78430000000000
C        -1.50120000000000    1.39560000000002   -2.96669999999997
H        -1.75370000000000    2.21460000000000   -3.64849999999999
H        -2.03200000000000    0.49449999999999   -3.28930000000000
H        -1.85170000000000    1.65210000000000   -1.96220000000001
C         0.84230000000001    2.20670000000000   -2.22040000000000
O         0.75200000000000    1.78260000000000   -0.83690000000001
C         2.32930000000000    2.18619999999999   -2.59899999999999
H         2.74130000000000    1.18500000000001   -2.45750000000000
H         2.48870000000000    2.51300000000000   -3.63180000000000
H         2.87200000000000    2.86269999999999   -1.93200000000000
C         0.28439999999999    3.62290000000000   -2.33660000000004
H        -0.72650000000000    3.69040000000000   -1.92910000000000
H         0.92130000000000    4.31480000000000   -1.77610000000000
H         0.26430000000000    3.94810000000000   -3.38320000000001
B         1.56300000000001    0.60960000000001    1.84840000000000
O         2.92780000000000    0.55230000000000    2.15020000000000
C         3.36330000000000    1.88660000000002    2.50260000000000
C         4.53140000000000    1.78590000000000    3.47740000000000
H         4.27910000000000    1.16090000000000    4.33690000000000
H         5.39390000000000    1.33790000000000    2.97340000000000
H         4.82389999999999    2.77870000000001    3.83820000000000
C         3.79700000000000    2.56850000000000    1.19670000000000
H         4.20020000000000    3.57090000000000    1.37680000000000
H         4.56740000000000    1.95560000000000    0.72110000000000
H         2.95240000000000    2.63260000000000    0.50540000000000
C         2.05040000000000    2.50089999999999    3.09320000000000
O         1.03750000000001    1.81620000000001    2.31910000000000
C         1.89099999999998    4.00450000000000    2.88650000000000
H         1.87290000000000    4.25440000000000    1.82410000000000
H         0.94940000000000    4.34260000000000    3.33170000000000
H         2.71080000000000    4.55150000000001    3.36630000000001
C         1.82470000000000    2.13200000000000    4.56519999999998
H         1.92610000000000    1.05329999999999    4.71320000000000
H         2.52609999999999    2.65279999999999    5.22540000000000
H         0.80630000000000    2.41580000000000    4.84900000000000
B         2.27820000000000   -1.33090000000000    0.17410000000001
O         2.89460000000001   -2.57740000000000    0.38450000000000
C         4.26930000000001   -2.48200000000000   -0.07209999999999
C         5.10900000000000   -2.05379999999999    1.14010000000002
H         4.76350000000000   -1.08740000000000    1.51750000000000
H         4.98050000000000   -2.79470000000000    1.93590000000001
H         6.17420000000000   -1.99290000000000    0.89299999999999
C         4.71950000000001   -3.84660000000000   -0.58469999999998
H         4.75280000000000   -4.56130000000000    0.24419999999998
H         5.72330000000001   -3.78370000000000   -1.02010000000000
H         4.03500000000000   -4.23600000000000   -1.34170000000001
C         4.16439999999999   -1.36219999999999   -1.16299999999999
O         3.08520000000000   -0.55030000000000   -0.65400000000000
C         5.40719999999999   -0.48870000000000   -1.31550000000001
H         6.27320000000001   -1.09010000000000   -1.61530000000001
H         5.23300000000000    0.26930000000000   -2.08590000000000
H         5.64270000000000    0.02650000000001   -0.38239999999999
C         3.71800000000002   -1.89830000000001   -2.53110000000000
H         2.82530000000000   -2.52159999999999   -2.42740000000000
H         3.46090000000000   -1.05249999999999   -3.17550000000000
H         4.50569999999998   -2.48290000000001   -3.01789999999999
H        -3.38499999999999   -4.00129999999999   -2.59310000000001
H        -5.21400000000001    1.52079999999999    1.29960000000000
C         0.23590000000001   -1.68140000000000    2.96030000000000
C        -0.93908317633388   -2.11341755401874    3.52245470804127
C         1.22914223432382   -1.92373398649717    3.96526436750641
N        -0.75613718311644   -2.53405088112465    4.81800533555941
H        -1.92917772271647   -2.14623711181691    3.09805776559441
C         2.62330963777402   -1.80965389311728    3.97767710879696
C         0.58001916374973   -2.43825870794804    5.10776551902559
C        -1.74164223560181   -3.14096164740337    5.67408449747500
C         3.31793846653180   -2.17335937353636    5.11717913557480
H         3.12654548919936   -1.44508729493198    3.09599878589233
C         1.28028502603344   -2.80421951910547    6.25829108910906
H        -1.76486915939412   -2.63753972213680    6.64273847384390
H        -1.50419445830695   -4.19658542996049    5.83359210288000
H        -2.72262168122771   -3.06500479721659    5.20525080445542
C         2.65683379595665   -2.65804687923994    6.24577862024651
H         4.39801144180932   -2.09059412293142    5.13478274850842
H         0.77362485978333   -3.20141923186381    7.12738988502012
H         3.23233281123358   -2.93786539316218    7.12006125647832
