107
 energy: -152.617444774931 gnorm: 0.002402788407 xtb: 6.4.1 (1a32961)
N        -0.96510000000000   -2.11529999999999   -0.24090000000000
C        -2.24700000000001   -1.69840000000000   -0.36219999999999
C        -3.14040000000001   -2.36820000000001   -1.21200000000000
C        -2.70220000000000   -3.47560000000000   -1.93049999999999
C        -1.37780000000000   -3.89880000000000   -1.78760000000001
C        -0.54290000000000   -3.18670000000000   -0.93510000000000
H         0.49810000000000   -3.45630000000000   -0.78940000000000
H        -0.99570000000000   -4.76030000000000   -2.32770000000000
H        -4.16500000000000   -2.02890000000000   -1.31830000000000
C        -2.62130000000000   -0.50949999999999    0.44100000000001
N        -1.62600000000000    0.07330000000000    1.16020000000000
C        -1.89680000000000    1.15240000000000    1.91690000000000
C        -3.17230000000000    1.70330000000000    1.99650000000000
C        -4.20510000000000    1.11740000000000    1.26270000000000
C        -3.92610000000000    0.00250000000000    0.47820000000000
H        -4.71960000000000   -0.46420000000000   -0.09520000000000
H        -3.34630000000000    2.57510000000000    2.62070000000000
H        -1.04450000000000    1.57420000000000    2.43690000000000
Ir        0.42150000000000   -0.81650000000000    0.91330000000000
H         0.87260000000000   -2.23030000000000    1.54050000000000
B         0.50670000000000    0.41560000000000   -0.81540000000000
O         0.19500000000000   -0.04700000000000   -2.09150000000000
C         0.00650000000000    1.10039999999999   -2.95430000000001
C         0.49020000000001    0.74740000000000   -4.35780000000000
H         1.51609999999999    0.37380000000000   -4.33700000000000
H         0.44730000000000    1.62240000000001   -5.01670000000000
H        -0.14739999999999   -0.03389999999999   -4.78430000000000
C        -1.50119999999999    1.39560000000001   -2.96670000000000
H        -1.75370000000000    2.21460000000000   -3.64850000000000
H        -2.03200000000001    0.49450000000000   -3.28930000000000
H        -1.85170000000000    1.65210000000000   -1.96220000000000
C         0.84230000000000    2.20669999999999   -2.22040000000000
O         0.75200000000000    1.78260000000001   -0.83690000000000
C         2.32930000000002    2.18619999999999   -2.59899999999998
H         2.74130000000000    1.18500000000000   -2.45750000000000
H         2.48870000000000    2.51300000000000   -3.63179999999999
H         2.87200000000000    2.86270000000000   -1.93200000000000
C         0.28440000000001    3.62290000000001   -2.33660000000001
H        -0.72650000000000    3.69040000000000   -1.92910000000000
H         0.92130000000000    4.31480000000000   -1.77610000000000
H         0.26430000000000    3.94810000000000   -3.38320000000000
B         1.56300000000000    0.60960000000000    1.84840000000000
O         2.92780000000000    0.55230000000000    2.15020000000000
C         3.36330000000000    1.88660000000000    2.50259999999999
C         4.53140000000001    1.78590000000000    3.47739999999997
H         4.27910000000000    1.16090000000001    4.33690000000001
H         5.39390000000000    1.33790000000000    2.97340000000000
H         4.82390000000000    2.77870000000000    3.83820000000000
C         3.79700000000001    2.56850000000001    1.19669999999999
H         4.20020000000000    3.57090000000000    1.37680000000000
H         4.56740000000000    1.95560000000000    0.72110000000000
H         2.95239999999999    2.63260000000000    0.50540000000000
C         2.05040000000000    2.50090000000001    3.09320000000000
O         1.03750000000000    1.81620000000000    2.31910000000001
C         1.89100000000000    4.00450000000001    2.88649999999999
H         1.87290000000000    4.25440000000000    1.82410000000001
H         0.94940000000000    4.34260000000000    3.33170000000000
H         2.71080000000000    4.55150000000000    3.36630000000000
C         1.82470000000000    2.13200000000001    4.56520000000001
H         1.92610000000000    1.05330000000001    4.71320000000000
H         2.52610000000000    2.65279999999999    5.22540000000000
H         0.80630000000000    2.41580000000000    4.84900000000000
B         2.27820000000000   -1.33090000000000    0.17410000000000
O         2.89460000000000   -2.57740000000000    0.38450000000000
C         4.26930000000000   -2.48200000000000   -0.07210000000000
C         5.10900000000000   -2.05380000000000    1.14010000000000
H         4.76350000000000   -1.08740000000000    1.51750000000000
H         4.98050000000000   -2.79470000000000    1.93590000000000
H         6.17420000000000   -1.99290000000000    0.89300000000000
C         4.71950000000000   -3.84660000000000   -0.58470000000000
H         4.75280000000000   -4.56130000000000    0.24420000000000
H         5.72330000000000   -3.78370000000000   -1.02010000000000
H         4.03500000000000   -4.23600000000000   -1.34170000000000
C         4.16440000000000   -1.36220000000000   -1.16299999999999
O         3.08520000000000   -0.55030000000000   -0.65400000000000
C         5.40720000000001   -0.48870000000000   -1.31549999999999
H         6.27320000000000   -1.09010000000000   -1.61530000000000
H         5.23300000000000    0.26930000000000   -2.08590000000000
H         5.64270000000000    0.02650000000000   -0.38240000000000
C         3.71799999999999   -1.89830000000001   -2.53110000000000
H         2.82530000000000   -2.52160000000000   -2.42740000000000
H         3.46090000000001   -1.05250000000001   -3.17550000000000
H         4.50570000000000   -2.48290000000000   -3.01790000000001
H        -3.38499999999999   -4.00130000000002   -2.59309999999999
H        -5.21400000000000    1.52080000000000    1.29960000000000
C         0.23590000000000   -1.68140000000000    2.96030000000000
C        -1.01211909262455   -2.07727839317362    3.41978352410095
C         1.30833672732416   -1.80844296006429    3.88125588622603
C        -1.23255575446419   -2.54253135403426    4.73488532299633
H        -1.86144824401878   -2.11276081426496    2.74606845883907
C         2.76000169980848   -1.83913883807754    3.51460860248395
C         1.08388370642173   -2.08266385922340    5.21852515609633
C        -0.16496879478774   -2.50894346569370    5.66899908340937
C        -2.41938096323489   -3.14613753077617    5.18751385263946
H         2.89636575678511   -1.69663039351909    2.45085816308442
H         3.16736663016797   -2.80888136306110    3.80777837159875
H         3.31953936105957   -1.07094563917244    4.04683587619322
H         1.91558768079981   -2.13906937504936    5.91005435461019
N        -0.23957093675843   -3.01404993218198    6.91421166867141
C        -2.46764351823769   -3.70415590677775    6.44682567156097
H        -3.27781165902611   -3.20511764119551    4.52847125597797
C        -1.34800217524486   -3.63094185622179    7.28763976111129
H        -3.35748161763905   -4.21332675398339    6.79315535337596
C        -1.31299034172707   -4.28145233872678    8.63701805023000
H        -0.36165698549864   -4.05205768735852    9.11668624508956
H        -1.40117707067468   -5.36413981695969    8.53104048124180
H        -2.13205634411481   -3.93028353202346    9.26535776442126
