14
 energy: -21.726048869083 gnorm: 0.042809356748 xtb: 6.4.1 (1a32961)
C        -0.30112000000000   -1.08973000000000    0.00666000000000
C        -0.83525000000000   -2.47505000000000    0.01136000000000
N        -1.11810000000000    0.01739000000000    0.00770000000000
C        -0.35402000000000    1.15696000000000    0.00367000000000
C        -0.88862000000000    2.47475000000000    0.00441000000000
N        -1.34297000000000    3.54175000000000    0.00522000000000
C         0.97087000000000    0.77647000000000   -0.00078000000000
C         1.00413000000000   -0.63946000000000    0.00090000000000
H        -1.93022000000000   -2.48924000000000    0.01267000000000
H        -0.48765000000000   -3.01151000000000    0.90027000000000
H        -0.48924000000000   -3.01751000000000   -0.87367000000000
H        -2.13048000000000   -0.00209000000000    0.01136000000000
H         1.82455000000000    1.44272000000000   -0.00447000000000
H         1.88813000000000   -1.26568000000000   -0.00131000000000
14
 energy: -21.727713750650 gnorm: 0.021290895033 xtb: 6.4.1 (1a32961)
C        -0.30412684926084   -1.07825536328340    0.00681257841452
C        -0.83716330874936   -2.46453932245358    0.01142847461618
N        -1.11758681800451    0.01444672932039    0.00808902802373
C        -0.35333578421887    1.15262755155855    0.00347570914227
C        -0.88792572958937    2.44862431559406    0.00351039935007
N        -1.33757628837688    3.50587945093541    0.00558519421989
C         0.97597122915639    0.77364716903156   -0.00060915698517
C         1.00057202599426   -0.63026116888423    0.00130812527186
H        -1.92635661251650   -2.46876340951952    0.01251677029651
H        -0.48904610022809   -3.00263114421046    0.89387981450062
H        -0.49037466244327   -3.00814617557852   -0.86784049789198
H        -2.12568357524846   -0.00690578444024    0.01176569189693
H         1.82437631268433    1.43367913331878   -0.00473208155828
H         1.87826616080118   -1.24963198138879   -0.00120004929718
14
 energy: -21.727943976658 gnorm: 0.005064858751 xtb: 6.4.1 (1a32961)
C        -0.30530794904692   -1.07325205066156    0.00665734409022
C        -0.83914461379826   -2.46016300165840    0.01135369167636
N        -1.11467933609921    0.01151527541506    0.00829997851615
C        -0.35244940133740    1.15115788413262    0.00417128966650
C        -0.89092342783468    2.43493711446412    0.00693995755124
N        -1.34085539965848    3.49504577030910    0.00203175548378
C         0.98025929657984    0.77054298055667   -0.00065682002494
C         1.00117602478942   -0.62753863593068    0.00108178116137
H        -1.92582871140782   -2.45580549048258    0.01237819688990
H        -0.49069552469248   -2.99803899951154    0.89168354060052
H        -0.49210219070816   -3.00323110182626   -0.86628977946045
H        -2.12113967403190   -0.01008359991972    0.01240323087305
H         1.82527527603990    1.42933698963155   -0.00461903508741
H         1.87642563120615   -1.24465313451837   -0.00144513193629
14
 energy: -21.727936028061 gnorm: 0.003695287816 xtb: 6.4.1 (1a32961)
C        -0.30516518604174   -1.07301762999064    0.00800818496663
C        -0.84008188012984   -2.46010547433017    0.01190274770345
N        -1.11266571498909    0.01075549326618    0.00841468199601
C        -0.35198724990764    1.15216450295886    0.00153724335113
C        -0.89427872420710    2.43338905636746   -0.00738212706827
N        -1.34328751651140    3.49431071369444    0.01548631393217
C         0.98185490843044    0.76954414974803   -0.00025357001952
C         1.00285278206462   -0.62798031351975    0.00264465554094
H        -1.92672279257132   -2.45301719786833    0.01244540715802
H        -0.49224402659678   -2.99793154012419    0.89243885085143
H        -0.49310271034838   -3.00248318265681   -0.86619342589768
H        -2.11939879229776   -0.01006034845622    0.01090705436324
H         1.82596104373979    1.42979098172923   -0.00584658179272
H         1.87827585936620   -1.24558921081809   -0.00011943508482
14
 energy: -21.727975092501 gnorm: 0.001943095204 xtb: 6.4.1 (1a32961)
C        -0.30483029922465   -1.07339505231763    0.00711629417864
C        -0.84084059091529   -2.46054706839070    0.01138136502995
N        -1.11082171854013    0.01035217351857    0.00866476992358
C        -0.35144964652034    1.15343009192543    0.00408083268026
C        -0.89736873480727    2.43340028809471    0.00460353111410
N        -1.34567822809304    3.49457700285180    0.00354331073702
C         0.98305394020257    0.76883563451467   -0.00047653819982
C         1.00455310498533   -0.62874140938795    0.00141077309807
H        -1.92773468283073   -2.45169333773320    0.01232343214454
H        -0.49317634893379   -2.99809449532712    0.89235479738088
H        -0.49463158120065   -3.00265280741824   -0.86735023828617
H        -2.11803655881362   -0.00943845482070    0.01249936862287
H         1.82656341996447    1.43084690424883   -0.00490938080538
H         1.88040792472715   -1.24710946975848   -0.00125231761853
14
 energy: -21.727977666285 gnorm: 0.000672607837 xtb: 6.4.1 (1a32961)
C        -0.30447447461994   -1.07393930287462    0.00713435438253
C        -0.84047049340097   -2.46075533577784    0.01137259812573
N        -1.11108744373576    0.01064372645448    0.00866989854785
C        -0.35103274830853    1.15320264595526    0.00390932462651
C        -0.89734326606275    2.43386144750518    0.00405522402142
N        -1.34452578389032    3.49542228737038    0.00400347238108
C         0.98250684435904    0.76905337003702   -0.00049468825476
C         1.00422839109976   -0.62856824215497    0.00143596592268
H        -1.92749543827233   -2.45335039914231    0.01238796368920
H        -0.49319119531759   -2.99879837180859    0.89218997427080
H        -0.49468632448632   -3.00331386716038   -0.86720997923609
H        -2.11835914656025   -0.00840690649669    0.01253461559409
H         1.82597231427325    1.43137839797602   -0.00484255299038
H         1.87996876492270   -1.24665944988292   -0.00115617108066
14
 energy: -21.727978661905 gnorm: 0.000303675403 xtb: 6.4.1 (1a32961)
C        -0.30434816483106   -1.07403097545483    0.00720826024489
C        -0.84052100236279   -2.46071385609482    0.01136265265990
N        -1.11082427555029    0.01042122333576    0.00872037526928
C        -0.35081838412626    1.15320964671610    0.00394503472190
C        -0.89850582077931    2.43310087324817    0.00383278630542
N        -1.34416528089632    3.49530810629234    0.00403931469507
C         0.98271459997419    0.76891864147294   -0.00045600459310
C         1.00443201562975   -0.62855068802389    0.00149615271192
H        -1.92756447993823   -2.45283853555131    0.01242701944688
H        -0.49335707350997   -2.99891981400647    0.89213470224997
H        -0.49494206323643   -3.00327720896131   -0.86730988067161
H        -2.11809423334005   -0.00792969447447    0.01258217273658
H         1.82582633639453    1.43170611373953   -0.00486238453472
H         1.88017782657225   -1.24663383223775   -0.00113020124239
