119
 energy: -172.729573932374 gnorm: 0.001118772357 xtb: 6.4.1 (1a32961)
N        -0.96510000000002   -2.11530000000000   -0.24089999999999
C        -2.24700000000001   -1.69839999999999   -0.36220000000000
C        -3.14040000000000   -2.36819999999999   -1.21199999999999
C        -2.70220000000000   -3.47559999999999   -1.93049999999999
C        -1.37780000000001   -3.89879999999999   -1.78760000000000
C        -0.54290000000002   -3.18669999999999   -0.93509999999999
H         0.49809999999998   -3.45630000000000   -0.78939999999999
H        -0.99570000000002   -4.76029999999999   -2.32769999999999
H        -4.16500000000002   -2.02889999999999   -1.31830000000000
C        -2.62130000000000   -0.50950000000000    0.44100000000000
N        -1.62600000000000    0.07330000000001    1.16020000000001
C        -1.89679999999999    1.15240000000000    1.91690000000000
C        -3.17230000000000    1.70330000000002    1.99650000000001
C        -4.20510000000000    1.11740000000004    1.26270000000000
C        -3.92610000000000    0.00250000000001    0.47820000000000
H        -4.71960000000000   -0.46420000000000   -0.09519999999999
H        -3.34629999999999    2.57510000000002    2.62070000000000
H        -1.04450000000000    1.57420000000001    2.43690000000000
Ir        0.42150000000000   -0.81650000000000    0.91330000000000
H         0.87260000000000   -2.23030000000000    1.54050000000001
B         0.50670000000000    0.41560000000000   -0.81540000000000
O         0.19500000000000   -0.04699999999999   -2.09150000000000
C         0.00650000000000    1.10040000000000   -2.95430000000000
C         0.49019999999999    0.74739999999999   -4.35780000000000
H         1.51610000000000    0.37380000000000   -4.33700000000000
H         0.44730000000000    1.62240000000000   -5.01670000000000
H        -0.14740000000000   -0.03390000000000   -4.78430000000000
C        -1.50120000000001    1.39560000000000   -2.96670000000001
H        -1.75370000000001    2.21460000000001   -3.64850000000000
H        -2.03200000000000    0.49450000000001   -3.28930000000000
H        -1.85170000000000    1.65210000000001   -1.96219999999999
C         0.84230000000000    2.20670000000000   -2.22040000000000
O         0.75200000000000    1.78260000000001   -0.83690000000001
C         2.32930000000000    2.18620000000000   -2.59900000000000
H         2.74130000000000    1.18499999999999   -2.45750000000000
H         2.48870000000000    2.51299999999999   -3.63180000000000
H         2.87200000000000    2.86269999999999   -1.93200000000001
C         0.28440000000001    3.62290000000001   -2.33660000000001
H        -0.72650000000000    3.69040000000001   -1.92910000000000
H         0.92130000000000    4.31480000000000   -1.77610000000000
H         0.26430000000000    3.94810000000000   -3.38320000000000
B         1.56299999999999    0.60960000000000    1.84840000000000
O         2.92780000000000    0.55230000000000    2.15020000000000
C         3.36330000000000    1.88660000000000    2.50260000000000
C         4.53140000000001    1.78590000000000    3.47740000000000
H         4.27910000000001    1.16090000000000    4.33690000000000
H         5.39390000000001    1.33790000000000    2.97340000000000
H         4.82390000000001    2.77870000000000    3.83819999999999
C         3.79700000000001    2.56849999999999    1.19670000000000
H         4.20020000000002    3.57090000000000    1.37680000000000
H         4.56740000000001    1.95559999999999    0.72110000000000
H         2.95240000000001    2.63260000000000    0.50539999999999
C         2.05040000000001    2.50090000000001    3.09320000000000
O         1.03750000000001    1.81620000000000    2.31909999999999
C         1.89100000000001    4.00450000000000    2.88649999999999
H         1.87290000000002    4.25440000000000    1.82410000000000
H         0.94940000000002    4.34260000000001    3.33169999999999
H         2.71080000000002    4.55150000000000    3.36630000000000
C         1.82470000000001    2.13200000000000    4.56520000000000
H         1.92610000000001    1.05330000000000    4.71320000000000
H         2.52610000000001    2.65280000000001    5.22539999999999
H         0.80630000000002    2.41580000000001    4.84900000000000
B         2.27819999999999   -1.33090000000000    0.17410000000000
O         2.89459999999999   -2.57740000000000    0.38450000000000
C         4.26929999999999   -2.48200000000000   -0.07210000000000
C         5.10900000000000   -2.05380000000000    1.14010000000000
H         4.76350000000000   -1.08740000000001    1.51750000000000
H         4.98050000000000   -2.79470000000001    1.93590000000000
H         6.17419999999999   -1.99290000000001    0.89300000000000
C         4.71949999999999   -3.84660000000001   -0.58469999999999
H         4.75280000000000   -4.56130000000000    0.24420000000000
H         5.72329999999999   -3.78370000000000   -1.02009999999999
H         4.03499999999999   -4.23600000000001   -1.34170000000000
C         4.16439999999999   -1.36220000000001   -1.16300000000000
O         3.08519999999999   -0.55030000000001   -0.65400000000000
C         5.40720000000000   -0.48870000000001   -1.31550000000000
H         6.27319999999999   -1.09010000000002   -1.61530000000000
H         5.23299999999999    0.26929999999998   -2.08590000000001
H         5.64270000000000    0.02649999999999   -0.38240000000000
C         3.71799999999998   -1.89830000000000   -2.53109999999999
H         2.82529999999999   -2.52160000000001   -2.42740000000000
H         3.46090000000000   -1.05250000000000   -3.17550000000000
H         4.50569999999998   -2.48290000000001   -3.01790000000000
H        -3.38500000000001   -4.00130000000000   -2.59309999999999
H        -5.21399999999999    1.52080000000007    1.29959999999999
C         0.23590000000005   -1.68139999999999    2.96030000000001
C        -1.02768961802903   -1.95960267295843    3.47689649839832
C         1.29233887343731   -1.81895216068079    3.87885644751433
C        -1.23360571281093   -2.25120394129564    4.83397010759608
H        -1.89604176768281   -1.95999717413315    2.83266175708855
C         1.08749188536900   -2.11010202005721    5.23322421728538
C         2.68850509129128   -1.75793193085171    3.73746012560882
C        -0.18764403273216   -2.32716941961591    5.74432670565203
H        -2.24082150418128   -2.44239367216539    5.17755832690470
O         2.25772141481267   -2.19417002613156    5.88679242989465
C         3.24318179742780   -1.97619660977399    4.97709278236869
H         3.22013633191046   -1.57180699707330    2.82846124904852
H        -0.34697392701316   -2.57131570850946    6.78386044913217
B         4.76457913452947   -1.92033258915665    5.28353310629254
O         5.47315837101456   -2.40186503888817    6.39210618657027
O         5.63941067833599   -1.32425827325662    4.36615064589757
C         6.83451677182958   -2.00967543385363    6.28767210700703
C         6.97846302388133   -1.48662477019291    4.80075490091769
C         7.06953986627903   -0.90931473630148    7.34129620851319
C         7.73456415794276   -3.20602626703296    6.62467180764657
C         7.71452465443269   -0.14640859036911    4.66090410604409
C         7.65117298819746   -2.50221240905552    3.85535045210333
H         6.83473485205538   -1.32009056565255    8.33005295163988
H         6.40225831090545   -0.05952192476971    7.16138773953537
H         8.11126101774049   -0.57208837480844    7.33304896766342
H         7.56192640906031   -3.49903182090861    7.66658334933543
H         8.78696349421188   -2.92987109197813    6.50394977658174
H         7.50606117780676   -4.06672728505460    5.98859768527251
H         8.73855206819103   -0.23180402725005    5.03813679622018
H         7.19037484507503    0.65309961570187    5.19295908903680
H         7.75081320060232    0.12288754514305    3.59913507294363
H         8.70028119720972   -2.65915088142975    4.12657788638373
H         7.60221243840666   -2.10371966680384    2.83598516906445
H         7.11514088712373   -3.45697239706715    3.86985236875416
