114
 energy: -167.429896051218 gnorm: 0.000276769858 xtb: 6.4.1 (1a32961)
N        -0.89726511367630   -2.00429360007340   -0.40908989108480
C        -2.15541218074529   -1.54921231416186   -0.56177795610281
C        -3.02197936467301   -2.13097586231908   -1.49636702327244
C        -2.58437782356159   -3.17459985746368   -2.28172816956860
C        -1.27766077329479   -3.62849566670448   -2.11856763659828
C        -0.48504151630939   -3.01262212351590   -1.17307797190086
H         0.53276887495340   -3.33504187061292   -1.00560098217250
H        -0.89223171347011   -4.44207548166206   -2.71109314905293
H        -4.03031124883649   -1.76898037071250   -1.61035745756247
C        -2.54357385360338   -0.42844365577978    0.28568675204278
N        -1.60317132831394    0.04057281493203    1.13402135999665
C        -1.91295562846122    1.06161171290186    1.93016426087052
C        -3.14933387305410    1.67434625717641    1.93750430830497
C        -4.12651180821104    1.21044023720321    1.06051448297193
C        -3.81545376826430    0.15555085620310    0.23010835167995
H        -4.55816037125244   -0.21346510565764   -0.45729827387112
H        -3.34776302466624    2.49123512346720    2.61222059246748
H        -1.11913594985892    1.39312722128937    2.58190904965127
Ir        0.42150000000038   -0.81649999999974    0.91330000000030
H         0.87260000000035   -2.23029999999966    1.54050000000030
B         0.39367921241322    0.65302612665562   -0.56728704948414
O        -0.23184975136709    0.41053854554197   -1.77676055333390
C        -0.35504463818938    1.62997052364926   -2.51769985836967
C        -0.08355661695397    1.36471313024776   -3.99621788794628
H         0.85427353270530    0.83465991049111   -4.12424673449011
H        -0.05236156989855    2.30273922246905   -4.54443344949050
H        -0.88158820900247    0.74720992792583   -4.40138682240650
C        -1.80232608596804    2.11408431682475   -2.34719232371389
H        -1.98566735302432    3.01452664734187   -2.92581822799820
H        -2.47402967416562    1.32914065759735   -2.68930742795812
H        -2.01291256795536    2.30336805889384   -1.29639576936381
C         0.68225537959177    2.56308737889715   -1.81149919032956
O         0.80193358665615    1.96601515157936   -0.51293358120235
C         2.07135608921342    2.49059934489224   -2.45712492249067
H         2.39848747728133    1.45383186158038   -2.48174068214768
H         2.06768307205483    2.91543076910749   -3.45666691674484
H         2.77214520066367    3.04525430564907   -1.83758856262496
C         0.25425992107700    4.02330129531786   -1.68016493932116
H        -0.63504371682382    4.12061771988569   -1.06521515545616
H         1.05510222154673    4.58766760029350   -1.20868642823282
H         0.06219541926391    4.44362063096227   -2.66409009299603
B         1.55579955366627    0.61587018657948    1.92128940441722
O         2.91698752597712    0.79226302763737    1.90766592262292
C         3.25956711002526    2.02782735772276    2.55365034700872
C         4.53592602484034    1.84942023484160    3.37289824426017
H         4.45049693922428    1.00309586781979    4.04585759878866
H         5.36949551998295    1.66552868737368    2.70006649461014
H         4.74009866271930    2.75085929984282    3.94430708051992
C         3.50248307337277    3.04915705908618    1.43592554110529
H         3.75701812056961    4.02606999003332    1.83600641094829
H         4.32282163326060    2.69473487845055    0.81588934970938
H         2.61397887438453    3.10874142864410    0.81252709521048
C         1.97628876081151    2.34292498218110    3.39451153637133
O         0.97082237895081    1.55804617193983    2.73901257200870
C         1.55250975300596    3.81065142264736    3.39384705644921
H         1.29281329795351    4.13424724788838    2.39143833917785
H         0.67750616966364    3.92882072483752    4.02835304473843
H         2.35394767330781    4.43179349451755    3.78438394294841
C         2.06571913736559    1.84245172241905    4.84203182136951
H         2.30745105248369    0.78288045708006    4.85752168517734
H         2.80588443516145    2.40251518131621    5.40506971047940
H         1.09412974086693    1.96717147469866    5.31527599114727
B         2.27819999999750   -1.33090000000232    0.17409999999998
O         3.12501921534928   -2.27579004701785    0.71164097602731
C         4.40695762762281   -2.21737446590758    0.07128193216168
C         5.33673820157565   -1.46398605225177    1.02833603756739
H         4.89496114962821   -0.49938859258775    1.26118629344863
H         5.40997776686570   -2.03045064024321    1.95329517772348
H         6.32982194541646   -1.34244862699323    0.60727895257303
C         4.93662875890846   -3.63566982422527   -0.13925556838029
H         5.09635782611130   -4.09669709578623    0.83176828864279
H         5.88091139933354   -3.60573811525123   -0.67548822562242
H         4.22723110857519   -4.24598364755152   -0.68804276619565
C         4.10223744814576   -1.41952406365022   -1.24599776695853
O         2.84255735492336   -0.79284779427555   -0.95781078715860
C         5.12621355686966   -0.33988164159349   -1.59211640389549
H         6.11302506592484   -0.77808223811486   -1.71199684189290
H         4.83781767653351    0.13712644515263   -2.52544181212554
H         5.15014707299878    0.41872463223391   -0.81755532406345
C         3.89050406782915   -2.32161911346336   -2.46926298950189
H         3.13558873310024   -3.07341610441933   -2.25674477938991
H         3.53061362390852   -1.70973746115371   -3.29289615845186
H         4.81762461049964   -2.80322974943545   -2.76463472966781
H        -3.24129527861994   -3.62854738733645   -3.00788525556858
H        -5.10528164811266    1.66464487710846    1.02982176011473
C         0.23590000000205   -1.68140000000306    2.96029999999781
C        -1.04306141834709   -1.98665931958835    3.41219925913890
C         1.28042436851498   -1.69666706843863    3.90147502259314
C        -1.22282099063867   -2.21596495998352    4.77480157003433
H        -1.88870009108499   -2.06131378245853    2.74305033180141
N         1.14958377850381   -1.95028739862172    5.19374805997820
H         2.29414990467717   -1.51477639474784    3.57192520393483
C        -0.08066235940960   -2.20509105461923    5.60485039012220
C        -2.33936927463400   -2.53430039358211    5.61360419364770
N        -0.48339184923198   -2.52696080319700    6.89316313682410
C        -1.86180790685990   -2.70987475331662    6.86571644284469
H        -3.36187157676457   -2.61731622602806    5.30284220847589
C         0.28706291698771   -2.76757705750791    8.02346522029204
H        -2.36609613994313   -2.96515023242876    7.77709962770663
O        -0.22701309520657   -3.04622656477192    9.08415959590983
O         1.57011386170689   -2.66630594980807    7.75710215968605
C         2.58810954755091   -2.94369235570214    8.76609453426403
C         2.46848288175608   -4.38981066224187    9.24603571859503
C         3.90311036959992   -2.73279955589094    8.01744962170509
C         2.46035252415596   -1.95916180141791    9.92707919609308
H         2.51032692670019   -5.06824623452898    8.39671997440263
H         1.52982636777206   -4.54254773694831    9.77259664041001
H         3.28966357415555   -4.61578749661864    9.91956037506028
H         3.94856249591293   -3.39561379590508    7.15846531594846
H         4.74025375120300   -2.93727237884809    8.67730753304240
H         3.96495821785577   -1.70926832568208    7.66157994816074
H         1.52613637150245   -2.11676937182192   10.45997899131774
H         2.48386835422850   -0.93847452774579    9.55204649691527
H         3.28753945028056   -2.10338606514809   10.61554921041248
