27
 energy: -42.612168817160 gnorm: 0.000125301833 xtb: 6.4.1 (1a32961)
C         0.79852455762312    1.36918119841789   -1.42242550955090
C        -0.30390343405381    0.87328541704937   -0.75363660469932
C        -0.19390803327683    0.12001431140298    0.43346403161867
N        -1.46204767779364   -0.21405619269812    0.84129479817363
C        -2.25831630529428    0.30535244947971   -0.04175219143185
O        -1.62665333027129    0.98323693201401   -1.04614513305420
C        -3.70081938857071    0.22604694531277   -0.03284142750676
C        -4.35061586805993   -0.43901275094768    1.00789556075722
C        -5.72860332357185   -0.51366663974927    1.02620250901459
C        -6.49146427787602    0.06723114716150    0.01751567393541
C        -7.98615978890479   -0.00876855931175    0.03177260914697
C        -5.83459909720606    0.72822882212012   -1.01848958999458
C        -4.45828634736589    0.81089067973231   -1.04960563556946
C         1.05465230009248   -0.15333487113306    0.97844641551745
C         2.15612450674381    0.34292643679222    0.31010930409127
C         2.03289082241094    1.08784301444020   -0.86369587093931
H         0.69470603085429    1.94415999972302   -2.32828631853859
H        -3.75451544588968   -0.88590678086927    1.78731096210444
H        -6.22178442290197   -1.02954295083712    1.83676600089089
H        -8.34156968426588   -0.53943317395926    0.91071510731068
H        -8.34474967172338   -0.52449773760990   -0.85799611678276
H        -8.41421865598948    0.99256377353808    0.02904354231905
H        -6.41453015095209    1.18303617254226   -1.80835289949561
H        -3.95756659563081    1.32537630538099   -1.85599805872560
H         1.14465405486852   -0.72899965386068    1.88473741048542
H         3.14263772935034    0.15145907625766    0.70408549344669
H         2.92404149765495    1.45500662961111   -1.34894406252335
