118
 energy: -179.836169392846 gnorm: 0.000669711649 xtb: 6.4.1 (1a32961)
N        -0.88498384408942   -2.12266173790348   -0.37257265374951
C        -2.16538272379034   -1.74007230224424   -0.52091134919271
C        -3.02138977035877   -2.41674827983330   -1.39912704746571
C        -2.54860086564357   -3.48493500218663   -2.13058951596153
C        -1.22030925907856   -3.86524017439441   -1.96872690178180
C        -0.43755358591957   -3.15479858473773   -1.07964080300495
H         0.59788185943340   -3.41508766365111   -0.91507490929287
H        -0.80736502981420   -4.69537413122687   -2.51829828285546
H        -4.04835725416589   -2.11171672023578   -1.51248058092144
C        -2.59946991313899   -0.58965595355888    0.26666932941213
N        -1.67857409136388   -0.02615746429807    1.07377733337665
C        -2.02836912909389    1.03207350682943    1.79960029388665
C        -3.29221758992294    1.58792660503177    1.77815757517740
C        -4.25498061109040    1.01746944686443    0.95165713765586
C        -3.89991919524550   -0.07488639551152    0.18913765223913
H        -4.63019273924005   -0.52253071560032   -0.46371990133636
H        -3.52125010671368    2.44085302816594    2.39589867077164
H        -1.24515836966598    1.44425432577512    2.41591102219658
Ir        0.42150000000083   -0.81649999999934    0.91329999999948
H         0.87260000000003   -2.23030000000016    1.54050000000001
B         0.32386267093673    0.57462271748175   -0.63452196677010
O        -0.13812348592497    0.20523403234608   -1.88837042078128
C        -0.50473326111171    1.36591409109773   -2.64341740104261
C        -0.06762872955915    1.19160252203744   -4.09651040905567
H         0.98759864569232    0.94704827103435   -4.15932131516946
H        -0.26607243932340    2.10068652665352   -4.65827297534871
H        -0.63220169518870    0.37485964630213   -4.54005857848261
C        -2.03627869514697    1.47120126229899   -2.59585757149508
H        -2.39018600839437    2.30118673441511   -3.20008234535660
H        -2.46037567930597    0.54554384672955   -2.98001667484170
H        -2.37512360959795    1.59631182509513   -1.57010431748474
C         0.20704314793006    2.52489998533782   -1.86677202231469
O         0.43675502288351    1.94448057700718   -0.57619641518273
C         1.57536758225374    2.88014674033717   -2.46126753794854
H         2.20021074593991    1.99127421300278   -2.49107230030699
H         1.47268486276856    3.30233738786110   -3.45662292049599
H         2.06246599146077    3.60920227600738   -1.81828175494937
C        -0.61860911944285    3.80171764025475   -1.70986883324262
H        -1.51744208140872    3.61999271873833   -1.12875571430849
H        -0.02352686706750    4.54508297071746   -1.18491685929813
H        -0.88933646052091    4.19562480954055   -2.68589045111897
B         1.44417888440248    0.72157486721318    1.91098327225646
O         2.77690528508357    1.02174901292146    1.89968462444168
C         2.99131164661702    2.35590675303413    2.37534346367387
C         4.25804205617896    2.40967360185781    3.22756203565482
H         4.22069274140862    1.68733601293709    4.03510498075977
H         5.11006570801819    2.16736076339964    2.59828354305569
H         4.39211430067862    3.40811217052400    3.63503075362295
C         3.18727030342178    3.22472140372173    1.12740155723363
H         3.36461280977449    4.26455010448939    1.38593130832519
H         4.04183490402913    2.83879788644246    0.57774281244255
H         2.31275490946026    3.12760122459677    0.49128479826524
C         1.65815959978965    2.67677136375361    3.13926702724466
O         0.76291155644325    1.66744419286531    2.65267217777740
C         1.05922462047116    4.04977935426712    2.83031591786787
H         0.78034986037430    4.11365932215838    1.78392099623923
H         0.16472298926146    4.19030576487530    3.43216536214018
H         1.77052361725261    4.83424778443599    3.07220215369535
C         1.76645261550932    2.51581560334348    4.66032004017031
H         2.14660874027056    1.53154198205972    4.91210436025718
H         2.41786289038408    3.27569608378372    5.08079870196730
H         0.77543274805889    2.61899361593612    5.09566687282665
B         2.27820000000247   -1.33089999999532    0.17409999999710
O         2.55581484074258   -2.64905993460530   -0.14998722780687
C         3.79176198245974   -2.74892640000168   -0.86715510421571
C         4.82418932986258   -3.36195436999128    0.08548032916686
H         4.92110510248142   -2.74141636872594    0.97092956189726
H         4.46843721768697   -4.34020171832312    0.39986376500364
H         5.78822461494559   -3.47358427989038   -0.40087267740264
C         3.59774030630726   -3.68639989035115   -2.06092570701174
H         3.37150510584692   -4.68299731714727   -1.69016753916885
H         4.50665286268717   -3.73223909214266   -2.65389276871709
H         2.77225813037603   -3.35866235217358   -2.68440797848458
C         4.09738143260957   -1.25476019152046   -1.24122521157764
O         3.23110769260154   -0.51544437578417   -0.37210394714792
C         5.54346813793182   -0.81599778036938   -1.01768073142243
H         6.21688756365677   -1.40568546299424   -1.63368696037222
H         5.63724154750731    0.23102997971060   -1.29312947589108
H         5.81737187263489   -0.91422558817041    0.02671973607487
C         3.68153414700227   -0.89654079291588   -2.67615769016210
H         2.62113827823285   -1.09597750659607   -2.81200609279587
H         3.84522817459509    0.16838269942444   -2.82419200460436
H         4.26487788604265   -1.44615994994085   -3.40836637489385
H        -3.19793822283817   -4.01212110155575   -2.81318291381141
H        -5.25587450353313    1.41920647236686    0.90358283530677
C         0.23590000000581   -1.68140000000400    2.96030000000397
C        -1.08223659139341   -2.00338186582269    3.30335183020348
C         1.16082395614154   -1.70212347553355    4.01407668463150
C        -1.52130005791197   -2.20040302471696    4.61047375568640
H        -1.81030739170226   -2.12933739457532    2.51539826204787
C         2.65140797917264   -1.66379651165741    3.88281266425165
C         0.74567236886414   -1.85376073121971    5.33858359390422
B        -2.95842435818729   -2.74795725547323    4.95645938571666
C        -0.57837222718796   -2.07798324587960    5.63593895711866
F         3.18388413980199   -1.78473267743898    2.66866175506108
F         3.20549560130379   -0.55914800971607    4.43566821046013
F         3.21639048456437   -2.68916906721887    4.59295348368492
H         1.48488048991842   -1.83099890283512    6.12756944991129
C        -3.48224834922541   -4.01195448130000    4.27853066257026
N        -3.75254996304458   -2.19735497837460    5.99012318609463
H        -0.87054690232830   -2.22558580087251    6.66397773967139
C        -4.61406046775688   -4.58763307010846    4.73932064913953
H        -2.96663346051972   -4.47700983960711    3.44776669005204
C        -3.40690140236629   -0.92565186328597    6.60191607908058
C        -4.88135033907937   -2.83446818481045    6.45868704460481
C        -5.32172676687359   -4.03677702139866    5.85165669300477
H        -5.02073052337375   -5.49103202737320    4.29974371338532
H        -2.55997145554984   -0.50135991150369    6.07135378807158
H        -3.13506286433170   -1.05404456531805    7.65179315310190
H        -4.24546389625815   -0.23031641861530    6.53303849088397
C        -5.61438925381098   -2.34613000354124    7.55300099495461
C        -6.45550278170442   -4.68978022676078    6.35623677035117
C        -6.71784609906631   -3.01455744977271    8.03151948963210
H        -5.31335089998556   -1.44176914553399    8.05430644276394
C        -7.14894578092198   -4.19543249455290    7.43315047267297
H        -6.77243980217677   -5.60692614537588    5.88009487416618
H        -7.25017551572108   -2.61911243234127    8.88423105192360
H        -8.01466022733360   -4.71448774200165    7.81622853884124
