11
 energy: -20.946867432934 gnorm: 0.000300252828 xtb: 6.4.1 (1a32961)
C        -1.51921728234745   -1.18064776086306   -0.00000000462285
C        -2.25275434886107   -0.00003242045800   -0.00000001682505
C        -1.51947941738212    1.18074160056946   -0.00000000463350
N        -0.19683571000388    1.18584277195991    0.00000002749049
C         0.40388027904032    0.00026301380031    0.00000004388046
C         1.83398217554782    0.00034777533220    0.00000013552343
N         2.97857699366564    0.00027539692098   -0.00000015379533
N        -0.19657723052957   -1.18545837067926    0.00000002750396
H        -1.98926204505208   -2.15468525146445   -0.00000001134307
H        -3.32915605105576   -0.00015353562477   -0.00000003181450
H        -1.98973736302186    2.15467678050667   -0.00000001136403
