11
 energy: -20.943494869021 gnorm: 0.077791689868 xtb: 6.4.1 (1a32961)
C        -1.53289000000000   -1.16636000000000    0.00000000000000
C        -2.26355000000000    0.00001000000000    0.00000000000000
C        -1.53320000000000    1.16643000000000    0.00000000000000
N        -0.18794000000000    1.20034000000000    0.00000000000000
C         0.42720000000000    0.00039000000000    0.00000000000000
C         1.86561000000000    0.00031000000000    0.00000000000000
N         3.02937000000000    0.00004000000000    0.00000000000000
N        -0.18764000000000   -1.19979000000000    0.00000000000000
H        -2.02410000000000   -2.13581000000000    0.00000000000000
H        -3.34457000000000   -0.00017000000000    0.00000000000000
H        -2.02487000000000    2.13578000000000    0.00000000000000
11
 energy: -20.946613002685 gnorm: 0.021587380513 xtb: 6.4.1 (1a32961)
C        -1.52142215728024   -1.17532998964014    0.00000000000160
C        -2.25393517776614   -0.00001213899539   -0.00000000000173
C        -1.52172725911534    1.17542872424892    0.00000000000160
N        -0.19292147245932    1.19115977145621   -0.00000000000154
C         0.41027102150875    0.00035744476560    0.00000000000149
C         1.84115356735541    0.00032359120538    0.00000000000005
N         2.98230949452508    0.00010050622550    0.00000000000001
N        -0.19263681380220   -1.19064457923561   -0.00000000000154
H        -1.99768455463774   -2.14846165052869   -0.00000000000007
H        -3.33164478295573   -0.00018466014029    0.00000000000019
H        -1.99834186537253    2.14843298063850   -0.00000000000007
11
 energy: -20.946863298375 gnorm: 0.002150212003 xtb: 6.4.1 (1a32961)
C        -1.51864317804879   -1.17965570133494   -0.00000000000389
C        -2.25201870757287   -0.00002438514828    0.00000000000107
C        -1.51893943823257    1.17976293862272   -0.00000000000388
N        -0.19657106317552    1.18657587970826    0.00000000000086
C         0.40276108208021    0.00032097565198   -0.00000000000515
C         1.83239092740566    0.00033552339266    0.00000000000437
N         2.97697591534040    0.00016403167812   -0.00000000000049
N        -0.19629270715743   -1.18610888718218    0.00000000000088
H        -1.98867491626369   -2.15416730860766    0.00000000000271
H        -3.32831805656959   -0.00017939310477    0.00000000000079
H        -1.98924985780580    2.15414632632407    0.00000000000271
11
 energy: -20.946867121006 gnorm: 0.000649051339 xtb: 6.4.1 (1a32961)
C        -1.51899083075972   -1.18032183278228    0.00000000002225
C        -2.25255101191605   -0.00002832080427    0.00000000004705
C        -1.51927567779582    1.18042489492916    0.00000000002225
N        -0.19670548061987    1.18612099642608   -0.00000000007623
C         0.40336477746743    0.00029793830302   -0.00000000010513
C         1.83330810957901    0.00034144818309   -0.00000000040547
N         2.97792585586975    0.00020653714798    0.00000000043882
N        -0.19643252009134   -1.18568730640426   -0.00000000007634
H        -1.98890189027792   -2.15465260858321    0.00000000002354
H        -3.32888450349733   -0.00016964118842    0.00000000008567
H        -1.98943682795816    2.15463789477311    0.00000000002358
11
 energy: -20.946867432836 gnorm: 0.000300208317 xtb: 6.4.1 (1a32961)
C        -1.51921728234745   -1.18064776086306   -0.00000000462285
C        -2.25275434886107   -0.00003242045800   -0.00000001682505
C        -1.51947941738212    1.18074160056946   -0.00000000463350
N        -0.19683571000388    1.18584277195991    0.00000002749049
C         0.40388027904032    0.00026301380031    0.00000004388046
C         1.83398217554782    0.00034777533220    0.00000013552343
N         2.97857699366564    0.00027539692098   -0.00000015379533
N        -0.19657723052957   -1.18545837067926    0.00000002750396
H        -1.98926204505208   -2.15468525146445   -0.00000001134307
H        -3.32915605105576   -0.00015353562477   -0.00000003181450
H        -1.98973736302186    2.15467678050667   -0.00000001136403
