15
 energy: -23.113814052561 gnorm: 0.029194920673 xtb: 6.4.0 (f63f532)
C        -0.08169000000000   -1.21009000000000    0.01008000000000
C         1.31515000000000   -1.21572000000000    0.00409000000000
C         2.02857000000000   -0.01033000000000   -0.00276000000000
C         3.52920000000000   -0.00354000000000   -0.01039000000000
C         1.32414000000000    1.20133000000000   -0.00045000000000
C        -0.07252000000000    1.20750000000000    0.00510000000000
C        -0.76939000000000    0.00139000000000    0.00939000000000
Cl       -2.49017000000000    0.00762000000000    0.01366000000000
H        -0.62437000000000   -2.15135000000000    0.01455000000000
H         1.84125000000000   -2.16811000000000    0.00428000000000
H         3.93496000000000   -1.02042000000000   -0.03106000000000
H         3.90864000000000    0.49200000000000    0.88878000000000
H         3.89928000000000    0.52253000000000   -0.89621000000000
H         1.86128000000000    2.14748000000000   -0.00361000000000
H        -0.60781000000000    2.15296000000000    0.00557000000000
15
 energy: -23.114994845814 gnorm: 0.010293418885 xtb: 6.4.0 (f63f532)
C        -0.07577576540059   -1.20486971793337    0.00943083923862
C         1.31076833562114   -1.20558136770248    0.00380355642431
C         2.02582335754035   -0.01282819341022   -0.00232381988086
C         3.52484533840139   -0.00525879812408   -0.01042786723986
C         1.32096976667555    1.18795578993856   -0.00067864301590
C        -0.06443833186391    1.20078149483859    0.00487981953806
C        -0.75869260240043    0.00082870504747    0.00935762977837
Cl       -2.48648445748004    0.00858663406085    0.01498460248699
H        -0.61920243240365   -2.13892434634423    0.01403227763767
H         1.83526013701457   -2.15055305584793    0.00357114048384
H         3.92260807744055   -1.01895197689233   -0.02963743870584
H         3.90593914092927    0.49798575833834    0.87777463119014
H         3.89670330956633    0.52802136279970   -0.88499215211596
H         1.85739611573572    2.12624704276482   -0.00440009645524
H        -0.59919998937624    2.13981066846630    0.00564552063566
15
 energy: -23.115091209606 gnorm: 0.004530574084 xtb: 6.4.0 (f63f532)
C        -0.07410657706343   -1.20466499124869    0.00923477826262
C         1.31010291280599   -1.20303272093319    0.00325218989711
C         2.02659877675013   -0.01368438370267   -0.00265035299342
C         3.52485680748998   -0.00624193801072   -0.01020652695272
C         1.32031671463234    1.18449775923569   -0.00109890686309
C        -0.06206786020309    1.20028243045112    0.00485339094918
C        -0.75449484682542    0.00056459226434    0.00966120613787
Cl       -2.48865961890429    0.00917820689412    0.01626749687101
H        -0.61929308898800   -2.13550244767628    0.01347880336984
H         1.83503610725075   -2.14605559597071    0.00279824947225
H         3.91903948324270   -1.01865661428901   -0.02840822000364
H         3.90430506006514    0.50043137367800    0.87556534803042
H         3.89556096261247    0.52946172454625   -0.88236330811041
H         1.85773777232863    2.12045381358681   -0.00498938754658
H        -0.59841260519392    2.13621879117495    0.00562523947955
15
 energy: -23.115110631369 gnorm: 0.002245301642 xtb: 6.4.0 (f63f532)
C        -0.07402961801471   -1.20540246944903    0.00895689888143
C         1.31020990934135   -1.20297334213641    0.00294978110477
C         2.02725966718235   -0.01392187859851   -0.00272117248786
C         3.52537228114804   -0.00648882243724   -0.01004962441131
C         1.32032213946102    1.18427524816843   -0.00123732309825
C        -0.06174526473262    1.20100633502856    0.00481021378553
C        -0.75276478903278    0.00042792246696    0.00970456225677
Cl       -2.49118898025978    0.00948628657937    0.01715461935133
H        -0.62054459738314   -2.13505926774345    0.01316324830539
H         1.83578772151275   -2.14584743327241    0.00220228566019
H         3.91895581051427   -1.01849547967511   -0.02746176882008
H         3.90397284847249    0.50140271790335    0.87540195885867
H         3.89564997882879    0.52936598780022   -0.88224443655435
H         1.85884011887637    2.11979366628414   -0.00532587085237
H        -0.59957722591440    2.13568052908113    0.00571662802015
15
 energy: -23.115117136180 gnorm: 0.000746614699 xtb: 6.4.0 (f63f532)
C        -0.07423690278156   -1.20609130527653    0.00879891343163
C         1.31046446973731   -1.20344614074792    0.00262422903635
C         2.02743753108393   -0.01397036766777   -0.00287800461152
C         3.52557310684784   -0.00641895862497   -0.00992531011476
C         1.32048518431787    1.18479177444926   -0.00131389954769
C        -0.06185293763439    1.20174412158697    0.00488933976434
C        -0.75156081845455    0.00035027184087    0.00987316486312
Cl       -2.49323138100758    0.00968756216249    0.01766555729745
H        -0.62159705188437   -2.13531314225551    0.01284054306212
H         1.83656094348382   -2.14647905685308    0.00168738398225
H         3.91957385789023   -1.01838806750142   -0.02642727510768
H         3.90385094127715    0.50210909214647    0.87552637802119
H         3.89593738602989    0.52860425352348   -0.88281663731883
H         1.85991667809787    2.12023785098749   -0.00538763804963
H        -0.60080100700347    2.13583211223017    0.00586325529166
15
 energy: -23.115117610019 gnorm: 0.000171061862 xtb: 6.4.0 (f63f532)
C        -0.07435304043332   -1.20618991217832    0.00865942675926
C         1.31058892968458   -1.20373857546475    0.00256451902812
C         2.02716431549584   -0.01393128087614   -0.00281069252699
C         3.52536498897309   -0.00625521680770   -0.00992171604244
C         1.32060695496344    1.18514781298786   -0.00113153759437
C        -0.06198149508839    1.20187249373097    0.00498441612626
C        -0.75125178684691    0.00036031391296    0.00977940988656
Cl       -2.49360011263173    0.00971759955804    0.01762699862135
H        -0.62161623158889   -2.13560730349060    0.01269143111847
H         1.83673230082845   -2.14681837635171    0.00149488547275
H         3.91987250760196   -1.01837553633087   -0.02573191148950
H         3.90385062384662    0.50261706958160    0.87531713130169
H         3.89592371073287    0.52778301933848   -0.88344676267210
H         1.86018683659878    2.12059037286861   -0.00514432119656
H        -0.60096850213638    2.13607751952155    0.00608872320751
