      -----------------------------------------------------------      
     |                   =====================                   |     
     |                           x T B                           |     
     |                   =====================                   |     
     |                         S. Grimme                         |     
     |          Mulliken Center for Theoretical Chemistry        |     
     |                    University of Bonn                     |     
      -----------------------------------------------------------      

   * xtb version 6.4.0 (f63f532) compiled by 'knkr256@seskscpg008.prim.scp' on 2021-04-09

   xtb is free software: you can redistribute it and/or modify it under
   the terms of the GNU Lesser General Public License as published by
   the Free Software Foundation, either version 3 of the License, or
   (at your option) any later version.
   
   xtb is distributed in the hope that it will be useful,
   but WITHOUT ANY WARRANTY; without even the implied warranty of
   MERCHANTABILITY or FITNESS FOR A PARTICULAR PURPOSE.  See the
   GNU Lesser General Public License for more details.
   
   Cite this work as:
   * C. Bannwarth, E. Caldeweyher, S. Ehlert, A. Hansen, P. Pracht,
     J. Seibert, S. Spicher, S. Grimme, WIREs Comput. Mol. Sci., 2020, 11,
     e01493. DOI: 10.1002/wcms.1493
   
   for GFN2-xTB:
   * C. Bannwarth, S. Ehlert and S. Grimme., J. Chem. Theory Comput., 2019,
     15, 1652-1671. DOI: 10.1021/acs.jctc.8b01176
   for GFN1-xTB:
   * S. Grimme, C. Bannwarth, P. Shushkov, J. Chem. Theory Comput., 2017,
     13, 1989-2009. DOI: 10.1021/acs.jctc.7b00118
   for GFN0-xTB:
   * P. Pracht, E. Caldeweyher, S. Ehlert, S. Grimme, ChemRxiv, 2019, preprint.
     DOI: 10.26434/chemrxiv.8326202.v1
   for GFN-FF:
   * S. Spicher and S. Grimme, Angew. Chem. Int. Ed., 2020, 59, 15665-15673.
     DOI: 10.1002/anie.202004239
   
   for DFT-D4:
   * E. Caldeweyher, C. Bannwarth and S. Grimme, J. Chem. Phys., 2017,
     147, 034112. DOI: 10.1063/1.4993215
   * E. Caldeweyher, S. Ehlert, A. Hansen, H. Neugebauer, S. Spicher,
     C. Bannwarth and S. Grimme, J. Chem. Phys., 2019, 150, 154122.
     DOI: 10.1063/1.5090222
   * E. Caldeweyher, J.-M. Mewes, S. Ehlert and S. Grimme, Phys. Chem. Chem. Phys.
     2020, 22, 8499-8512. DOI: 10.1039/D0CP00502A
   
   for sTDA-xTB:
   * S. Grimme and C. Bannwarth, J. Chem. Phys., 2016, 145, 054103.
     DOI: 10.1063/1.4959605
   
   in the mass-spec context:
   * V. Asgeirsson, C. Bauer and S. Grimme, Chem. Sci., 2017, 8, 4879.
     DOI: 10.1039/c7sc00601b
   * J. Koopman and S. Grimme, ACS Omega 2019, 4, 12, 15120-15133.
     DOI: 10.1021/acsomega.9b02011
   
   for metadynamics refer to:
   * S. Grimme, J. Chem. Theory Comput., 2019, 155, 2847-2862
     DOI: 10.1021/acs.jctc.9b00143
   
   for SPH calculations refer to:
   * S. Spicher and S. Grimme, J. Chem. Theory Comput., 2021, 17, 1701-1714
     DOI: 10.1021/acs.jctc.0c01306
   
   with help from (in alphabetical order)
   P. Atkinson, C. Bannwarth, F. Bohle, G. Brandenburg, E. Caldeweyher
   M. Checinski, S. Dohm, S. Ehlert, S. Ehrlich, I. Gerasimov, J. Koopman
   C. Lavinge, S. Lehtola, F. März, M. Müller, F. Musil, H. Neugebauer
   J. Pisarek, P. Pracht, J. Seibert, P. Shushkov, S. Spicher, M. Stahn
   T. Strunk, J. Stückrath, T. Rose, and J. Unsleber
   
 * started run on 2021/10/08 at 07:28:22.514     

           -------------------------------------------------
          |                Calculation Setup                |
           -------------------------------------------------

          program call               : xtb xtbopt.xyz --sp --alpb thf -P 6
          hostname                   : seskscpg010.prim.scp
          coordinate file            : xtbopt.xyz
          omp threads                :                     6
          number of atoms            :                    96
          number of electrons        :                   256
          charge                     :                     0
          spin                       :                   0.0
          first test random number   :      0.40102829462262

   ID    Z sym.   atoms
    1    7 N      1, 11
    2    6 C      2-6, 10, 12-15, 23, 24, 28, 32, 34, 38, 44, 45, 49, 53, 55,
                  59, 65, 66, 70, 74, 76, 80, 86-89, 91, 93
    3    1 H      7-9, 16-18, 20, 25-27, 29-31, 35-37, 39-41, 46-48, 50-52,
                  56-58, 60-62, 67-69, 71-73, 77-79, 81-85, 90, 94-96
    4   77 Ir     19
    5    5 B      21, 42, 63
    6    8 O      22, 33, 43, 54, 64, 75
    7   53 I      92

molecular fragmentation (1/2 indicates fragments):
111111111111111111111111111111111111111111111111111111111111111111111111
111111111111122222222222
# atoms in fragment 1/2:    85    11
 fragment masses (1/2) :      730.32      203.00
CMA distance (Bohr)    :   8.152
constraining FC (au)   :  0.0500

           -------------------------------------------------
          |                 G F N 2 - x T B                 |
           -------------------------------------------------

        Reference                      10.1021/acs.jctc.8b01176
      * Hamiltonian:
        H0-scaling (s, p, d)           1.850000    2.230000    2.230000
        zeta-weighting                 0.500000
      * Dispersion:
        s8                             2.700000
        a1                             0.520000
        a2                             5.000000
        s9                             5.000000
      * Repulsion:
        kExp                           1.500000    1.000000
        rExp                           1.000000
      * Coulomb:
        alpha                          2.000000
        third order                    shell-resolved
        anisotropic                    true
        a3                             3.000000
        a5                             4.000000
        cn-shift                       1.200000
        cn-exp                         4.000000
        max-rad                        5.000000

      * Solvation model:               ALPB
        Solvent                        thf
        Parameter file                 internal GFN2-xTB/ALPB
        Dielectric constant                7.6000E+00
        Reference state                gsolv [1 M gas/solution]
        Free energy shift                  5.3248E-03 Eh       3.3414E+00 kcal/mol
        Temperature                        2.9815E+02 K
        Density                            8.8300E-01 kg/L
        Solvent mass                       7.2106E+01 g/mol
        Interaction kernel             P16
        Born radius scaling (c1)           1.7311E+00
        Born radii integrator          GBOBC
        Born offset                        0.0000E+00 a0       0.0000E+00 AA
        H-bond correction              true
        Ion screening                  false
        Surface tension                    1.0000E-05 Eh       1.5569E+01 dyn/cm
        Grid points                               230 per atom
q/qsh data taken from xtbrestart
CAMM data taken from xtbrestart

          ...................................................
          :                      SETUP                      :
          :.................................................:
          :  # basis functions                 249          :
          :  # atomic orbitals                 247          :
          :  # shells                          145          :
          :  # electrons                       256          :
          :  max. iterations                   250          :
          :  Hamiltonian                  GFN2-xTB          :
          :  restarted?                       true          :
          :  GBSA solvation                   true          :
          :  PC potential                    false          :
          :  electronic temp.          300.0000000     K    :
          :  accuracy                    1.0000000          :
          :  -> integral cutoff          0.2500000E+02      :
          :  -> integral neglect         0.1000000E-07      :
          :  -> SCF convergence          0.1000000E-05 Eh   :
          :  -> wf. convergence          0.1000000E-03 e    :
          :  Broyden damping             0.4000000          :
          ...................................................

 iter      E             dE          RMSdq      gap      omega  full diag
   1   -141.5251117 -0.141525E+03  0.206E-04    0.90       0.0  T
   2   -141.5251116  0.967472E-08  0.373E-04    0.89      27.4  T
   3   -141.5251117 -0.111689E-07  0.118E-04    0.90      86.5  T

   *** convergence criteria satisfied after 3 iterations ***

         #    Occupation            Energy/Eh            Energy/eV
      -------------------------------------------------------------
         1        2.0000           -0.7125940             -19.3907
       ...           ...                  ...                  ...
       122        2.0000           -0.3740980             -10.1797
       123        2.0000           -0.3552261              -9.6662
       124        2.0000           -0.3392082              -9.2303
       125        2.0000           -0.3288253              -8.9478
       126        2.0000           -0.3262584              -8.8779
       127        2.0000           -0.3178887              -8.6502
       128        2.0000           -0.3144738              -8.5573 (HOMO)
       129                         -0.2815803              -7.6622 (LUMO)
       130                         -0.2535302              -6.8989
       131                         -0.2511774              -6.8349
       132                         -0.2234406              -6.0801
       133                         -0.2225935              -6.0571
       ...                                ...                  ...
       247                          3.8726542             105.3803
      -------------------------------------------------------------
                  HL-Gap            0.0328935 Eh            0.8951 eV
             Fermi-level           -0.2980142 Eh           -8.1094 eV

 SCC (total)                   0 d,  0 h,  0 min,  0.114 sec
 SCC setup                      ...        0 min,  0.003 sec (  2.715%)
 Dispersion                     ...        0 min,  0.002 sec (  1.875%)
 classical contributions        ...        0 min,  0.000 sec (  0.135%)
 integral evaluation            ...        0 min,  0.030 sec ( 25.936%)
 iterations                     ...        0 min,  0.034 sec ( 30.014%)
 molecular gradient             ...        0 min,  0.044 sec ( 38.760%)
 printout                       ...        0 min,  0.001 sec (  0.513%)

         :::::::::::::::::::::::::::::::::::::::::::::::::::::
         ::                     SUMMARY                     ::
         :::::::::::::::::::::::::::::::::::::::::::::::::::::
         :: total energy            -139.743649496609 Eh    ::
         :: total w/o Gsasa/hb      -139.704982457360 Eh    ::
         :: gradient norm              0.032482418208 Eh/a0 ::
         :: HOMO-LUMO gap              0.895077383489 eV    ::
         ::.................................................::
         :: SCC energy              -141.525111652289 Eh    ::
         :: -> isotropic ES            0.239165461427 Eh    ::
         :: -> anisotropic ES          0.000473499807 Eh    ::
         :: -> anisotropic XC          0.034491813260 Eh    ::
         :: -> dispersion             -0.142460652768 Eh    ::
         :: -> Gsolv                  -0.048023196985 Eh    ::
         ::    -> Gelec               -0.009356157736 Eh    ::
         ::    -> Gsasa               -0.041611515116 Eh    ::
         ::    -> Ghb                 -0.002380339578 Eh    ::
         ::    -> Gshift               0.005324815444 Eh    ::
         :: repulsion energy           1.772610071836 Eh    ::
         :: add. restraining           0.000000000000 Eh    ::
         :: total charge               0.000000001667 e     ::
         :::::::::::::::::::::::::::::::::::::::::::::::::::::

           -------------------------------------------------
          |                Property Printout                |
           -------------------------------------------------

    * Orbital Energies and Occupations

         #    Occupation            Energy/Eh            Energy/eV
      -------------------------------------------------------------
         1        2.0000           -0.7125940             -19.3907
       ...           ...                  ...                  ...
       116        2.0000           -0.3975499             -10.8179
       117        2.0000           -0.3933665             -10.7040
       118        2.0000           -0.3915766             -10.6553
       119        2.0000           -0.3892957             -10.5933
       120        2.0000           -0.3860990             -10.5063
       121        2.0000           -0.3759055             -10.2289
       122        2.0000           -0.3740980             -10.1797
       123        2.0000           -0.3552261              -9.6662
       124        2.0000           -0.3392082              -9.2303
       125        2.0000           -0.3288253              -8.9478
       126        2.0000           -0.3262584              -8.8779
       127        2.0000           -0.3178887              -8.6502
       128        2.0000           -0.3144738              -8.5573 (HOMO)
       129                         -0.2815803              -7.6622 (LUMO)
       130                         -0.2535302              -6.8989
       131                         -0.2511774              -6.8349
       132                         -0.2234406              -6.0801
       133                         -0.2225935              -6.0571
       134                         -0.2112759              -5.7491
       135                         -0.2093390              -5.6964
       136                         -0.1856663              -5.0522
       137                         -0.1547595              -4.2112
       138                         -0.1320713              -3.5938
       139                         -0.1282270              -3.4892
       ...                                ...                  ...
       247                          3.8726542             105.3803
      -------------------------------------------------------------
                  HL-Gap            0.0328935 Eh            0.8951 eV
             Fermi-level           -0.2980142 Eh           -8.1094 eV

     #   Z          covCN         q      C6AA      α(0)
     1   7 N        2.550    -0.131    23.870     7.256
     2   6 C        2.955     0.076    26.298     8.411
     3   6 C        2.918    -0.044    29.083     8.843
     4   6 C        2.924    -0.022    28.543     8.761
     5   6 C        2.915    -0.044    29.089     8.844
     6   6 C        2.893     0.051    26.851     8.496
     7   1 H        0.926     0.051     2.313     2.378
     8   1 H        0.926     0.056     2.247     2.344
     9   1 H        0.926     0.045     2.386     2.415
    10   6 C        2.952     0.072    26.385     8.425
    11   7 N        2.542    -0.142    24.111     7.292
    12   6 C        2.889     0.043    27.029     8.524
    13   6 C        2.915    -0.045    29.127     8.850
    14   6 C        2.922    -0.025    28.630     8.775
    15   6 C        2.918    -0.045    29.126     8.850
    16   1 H        0.926     0.044     2.400     2.423
    17   1 H        0.926     0.049     2.335     2.390
    18   1 H        0.926     0.071     2.075     2.253
    19  77 Ir       5.936    -0.144   386.781    36.369
    20   1 H        0.977     0.077     2.000     2.210
    21   5 B        2.634     0.410    15.919     6.737
    22   8 O        1.638    -0.410    21.044     6.192
    23   6 C        3.836     0.131    18.433     6.108
    24   6 C        3.755    -0.121    22.868     6.819
    25   1 H        0.925     0.054     2.269     2.355
    26   1 H        0.925     0.045     2.382     2.414
    27   1 H        0.925     0.051     2.307     2.375
    28   6 C        3.754    -0.107    22.608     6.780
    29   1 H        0.925     0.048     2.349     2.397
    30   1 H        0.925     0.041     2.434     2.440
    31   1 H        0.925     0.025     2.657     2.549
    32   6 C        3.844     0.132    18.410     6.104
    33   8 O        1.637    -0.411    21.083     6.198
    34   6 C        3.755    -0.121    22.880     6.820
    35   1 H        0.925     0.052     2.292     2.367
    36   1 H        0.925     0.047     2.362     2.404
    37   1 H        0.925     0.050     2.319     2.382
    38   6 C        3.754    -0.119    22.828     6.813
    39   1 H        0.925     0.044     2.396     2.420
    40   1 H        0.925     0.054     2.274     2.358
    41   1 H        0.925     0.046     2.372     2.408
    42   5 B        2.617     0.410    16.003     6.771
    43   8 O        1.637    -0.379    20.455     6.105
    44   6 C        3.829     0.130    18.453     6.112
    45   6 C        3.755    -0.130    23.059     6.847
    46   1 H        0.925     0.064     2.156     2.296
    47   1 H        0.925     0.058     2.226     2.333
    48   1 H        0.925     0.052     2.298     2.370
    49   6 C        3.755    -0.120    22.864     6.818
    50   1 H        0.925     0.048     2.347     2.396
    51   1 H        0.925     0.048     2.350     2.397
    52   1 H        0.925     0.050     2.320     2.382
    53   6 C        3.824     0.130    18.461     6.114
    54   8 O        1.637    -0.393    20.715     6.144
    55   6 C        3.755    -0.121    22.871     6.819
    56   1 H        0.925     0.047     2.354     2.399
    57   1 H        0.925     0.051     2.313     2.378
    58   1 H        0.925     0.049     2.335     2.389
    59   6 C        3.755    -0.123    22.918     6.826
    60   1 H        0.925     0.053     2.281     2.362
    61   1 H        0.925     0.053     2.283     2.363
    62   1 H        0.925     0.049     2.338     2.391
    63   5 B        2.628     0.408    15.968     6.753
    64   8 O        1.649    -0.362    20.130     6.057
    65   6 C        3.834     0.126    18.508     6.121
    66   6 C        3.755    -0.133    23.115     6.855
    67   1 H        0.925     0.056     2.244     2.343
    68   1 H        0.925     0.065     2.144     2.290
    69   1 H        0.925     0.054     2.267     2.355
    70   6 C        3.755    -0.131    23.082     6.850
    71   1 H        0.925     0.067     2.118     2.276
    72   1 H        0.925     0.053     2.288     2.365
    73   1 H        0.925     0.053     2.288     2.366
    74   6 C        3.830     0.128    18.482     6.117
    75   8 O        1.637    -0.386    20.584     6.124
    76   6 C        3.755    -0.125    22.946     6.830
    77   1 H        0.925     0.053     2.283     2.363
    78   1 H        0.925     0.052     2.300     2.371
    79   1 H        0.925     0.057     2.238     2.340
    80   6 C        3.755    -0.122    22.887     6.822
    81   1 H        0.925     0.039     2.469     2.457
    82   1 H        0.925     0.050     2.321     2.383
    83   1 H        0.925     0.056     2.245     2.343
    84   1 H        0.926     0.052     2.290     2.366
    85   1 H        0.926     0.048     2.345     2.395
    86   6 C        2.932    -0.030    28.747     8.793
    87   6 C        2.943    -0.029    28.713     8.788
    88   6 C        2.963     0.044    27.017     8.526
    89   6 C        2.916    -0.040    28.993     8.830
    90   1 H        0.926     0.029     2.604     2.523
    91   6 C        3.106    -0.040    28.844     8.800
    92  53 I        1.275    -0.135   381.967    33.738
    93   6 C        2.921    -0.042    29.039     8.837
    94   1 H        0.926     0.030     2.589     2.516
    95   1 H        0.926     0.057     2.235     2.338
    96   1 H        0.926     0.040     2.443     2.444

 Mol. C6AA /au·bohr⁶  :     108925.853608
 Mol. C8AA /au·bohr⁸  :    3224161.388005
 Mol. α(0) /au        :        516.236105


Wiberg/Mayer (AO) data.
largest (>0.10) Wiberg bond orders for each atom

 ---------------------------------------------------------------------------
     #   Z sym  total        # sym  WBO       # sym  WBO       # sym  WBO
 ---------------------------------------------------------------------------
     1   7 N    3.389 --     6 C    1.390     2 C    1.312    19 Ir   0.427
     2   6 C    3.979 --     3 C    1.346     1 N    1.312    10 C    1.096
     3   6 C    3.988 --     4 C    1.486     2 C    1.346     9 H    0.962
                             6 C    0.106
     4   6 C    3.985 --     3 C    1.486     5 C    1.381    84 H    0.969
     5   6 C    3.978 --     6 C    1.460     4 C    1.381     8 H    0.968
     6   6 C    3.978 --     5 C    1.460     1 N    1.390     7 H    0.957
                             3 C    0.106
     7   1 H    0.997 --     6 C    0.957
     8   1 H    0.996 --     5 C    0.968
     9   1 H    0.998 --     3 C    0.962
    10   6 C    3.978 --    15 C    1.351    11 N    1.301     2 C    1.096
    11   7 N    3.378 --    12 C    1.381    10 C    1.301    19 Ir   0.403
    12   6 C    3.974 --    13 C    1.463    11 N    1.381    18 H    0.948
                            15 C    0.105
    13   6 C    3.982 --    12 C    1.463    14 C    1.380    17 H    0.969
    14   6 C    3.982 --    15 C    1.481    13 C    1.380    85 H    0.969
    15   6 C    3.989 --    14 C    1.481    10 C    1.351    16 H    0.962
                            12 C    0.105
    16   1 H    0.998 --    15 C    0.962
    17   1 H    0.997 --    13 C    0.969
    18   1 H    0.995 --    12 C    0.948
    19  77 Ir   5.148 --    63 B    0.868    42 B    0.858    21 B    0.708
                            86 C    0.596    20 H    0.545     1 N    0.427
                            11 N    0.403
    20   1 H    0.992 --    19 Ir   0.545    86 C    0.345
    21   5 B    3.269 --    33 O    1.103    22 O    1.098    19 Ir   0.708
    22   8 O    2.192 --    21 B    1.098    23 C    0.941
    23   6 C    3.942 --    24 C    0.997    28 C    0.990    32 C    0.941
                            22 O    0.941
    24   6 C    3.994 --    23 C    0.997    26 H    0.983    27 H    0.983
                            25 H    0.982
    25   1 H    0.997 --    24 C    0.982
    26   1 H    0.997 --    24 C    0.983
    27   1 H    0.997 --    24 C    0.983
    28   6 C    3.997 --    23 C    0.990    31 H    0.985    30 H    0.984
                            29 H    0.984
    29   1 H    0.997 --    28 C    0.984
    30   1 H    0.998 --    28 C    0.984
    31   1 H    0.999 --    28 C    0.985
    32   6 C    3.939 --    38 C    0.997    34 C    0.991    23 C    0.941
                            33 O    0.937
    33   8 O    2.192 --    21 B    1.103    32 C    0.937
    34   6 C    3.994 --    32 C    0.991    36 H    0.983    37 H    0.981
                            35 H    0.981
    35   1 H    0.997 --    34 C    0.981
    36   1 H    0.997 --    34 C    0.983
    37   1 H    0.997 --    34 C    0.981
    38   6 C    3.994 --    32 C    0.997    41 H    0.984    39 H    0.983
                            40 H    0.982
    39   1 H    0.998 --    38 C    0.983
    40   1 H    0.997 --    38 C    0.982
    41   1 H    0.997 --    38 C    0.984
    42   5 B    3.338 --    43 O    1.131    54 O    1.101    19 Ir   0.858
    43   8 O    2.238 --    42 B    1.131    44 C    0.935
    44   6 C    3.934 --    45 C    0.996    49 C    0.991    53 C    0.937
                            43 O    0.935
    45   6 C    3.991 --    44 C    0.996    48 H    0.983    47 H    0.981
                            46 H    0.977
    46   1 H    0.996 --    45 C    0.977
    47   1 H    0.996 --    45 C    0.981
    48   1 H    0.996 --    45 C    0.983
    49   6 C    3.994 --    44 C    0.991    50 H    0.983    51 H    0.983
                            52 H    0.979
    50   1 H    0.997 --    49 C    0.983
    51   1 H    0.997 --    49 C    0.983
    52   1 H    0.997 --    49 C    0.979
    53   6 C    3.935 --    55 C    0.995    59 C    0.993    44 C    0.937
                            54 O    0.932
    54   8 O    2.221 --    42 B    1.101    53 C    0.932
    55   6 C    3.994 --    53 C    0.995    57 H    0.983    58 H    0.983
                            56 H    0.983
    56   1 H    0.998 --    55 C    0.983
    57   1 H    0.997 --    55 C    0.983
    58   1 H    0.996 --    55 C    0.983
    59   6 C    3.993 --    53 C    0.993    62 H    0.983    61 H    0.982
                            60 H    0.977
    60   1 H    0.997 --    59 C    0.977
    61   1 H    0.996 --    59 C    0.982
    62   1 H    0.997 --    59 C    0.983
    63   5 B    3.366 --    64 O    1.122    75 O    1.111    19 Ir   0.868
    64   8 O    2.257 --    63 B    1.122    65 C    0.931
    65   6 C    3.934 --    70 C    0.997    66 C    0.992    74 C    0.939
                            64 O    0.931
    66   6 C    3.991 --    65 C    0.992    69 H    0.982    67 H    0.980
                            68 H    0.977
    67   1 H    0.997 --    66 C    0.980
    68   1 H    0.995 --    66 C    0.977
    69   1 H    0.996 --    66 C    0.982
    70   6 C    3.991 --    65 C    0.997    72 H    0.983    73 H    0.982
                            71 H    0.981
    71   1 H    0.995 --    70 C    0.981
    72   1 H    0.996 --    70 C    0.983
    73   1 H    0.997 --    70 C    0.982
    74   6 C    3.933 --    76 C    0.997    80 C    0.991    65 C    0.939
                            75 O    0.932
    75   8 O    2.229 --    63 B    1.111    74 C    0.932
    76   6 C    3.992 --    74 C    0.997    78 H    0.982    77 H    0.982
                            79 H    0.982
    77   1 H    0.996 --    76 C    0.982
    78   1 H    0.997 --    76 C    0.982
    79   1 H    0.997 --    76 C    0.982
    80   6 C    3.995 --    74 C    0.991    81 H    0.983    82 H    0.983
                            83 H    0.983
    81   1 H    0.998 --    80 C    0.983
    82   1 H    0.997 --    80 C    0.983
    83   1 H    0.996 --    80 C    0.983
    84   1 H    0.996 --     4 C    0.969
    85   1 H    0.997 --    14 C    0.969
    86   6 C    3.949 --    88 C    1.390    87 C    1.362    19 Ir   0.596
                            20 H    0.345
    87   6 C    3.990 --    89 C    1.448    86 C    1.362    90 H    0.958
                            91 C    0.106
    88   6 C    3.947 --    91 C    1.422    86 C    1.390    92 I    0.941
    89   6 C    3.990 --    87 C    1.448    93 C    1.423    94 H    0.969
    90   1 H    0.999 --    87 C    0.958
    91   6 C    3.985 --    93 C    1.434    88 C    1.422    95 H    0.966
                            87 C    0.106
    92  53 I    1.126 --    88 C    0.941
    93   6 C    3.986 --    91 C    1.434    89 C    1.423    96 H    0.968
    94   1 H    0.998 --    89 C    0.969
    95   1 H    0.995 --    91 C    0.966
    96   1 H    0.997 --    93 C    0.968
 ---------------------------------------------------------------------------

Topologies differ in total number of bonds
Writing topology from bond orders to xtbtopo.mol

molecular dipole:
                 x           y           z       tot (Debye)
 q only:        0.020       0.376      -1.021
   full:       -2.602       0.941      -2.232       9.035
molecular quadrupole (traceless):
                xx          xy          yy          xz          yz          zz
 q only:        9.299       2.665      -0.582      -3.087      12.701      -8.717
  q+dip:        2.260      11.939       7.275     -20.925      22.662      -9.535
   full:        1.317      12.914       9.336     -23.302      19.536     -10.653


           -------------------------------------------------
          | TOTAL ENERGY             -139.743649496609 Eh   |
          | GRADIENT NORM               0.032482418208 Eh/α |
          | HOMO-LUMO GAP               0.895077383489 eV   |
           -------------------------------------------------

------------------------------------------------------------------------
 * finished run on 2021/10/08 at 07:28:22.672     
------------------------------------------------------------------------
 total:
 * wall-time:     0 d,  0 h,  0 min,  0.158 sec
 *  cpu-time:     0 d,  0 h,  0 min,  0.922 sec
 * ratio c/w:     5.850 speedup
 SCF:
 * wall-time:     0 d,  0 h,  0 min,  0.116 sec
 *  cpu-time:     0 d,  0 h,  0 min,  0.692 sec
 * ratio c/w:     5.974 speedup

