96
 energy: -139.691299067450 gnorm: 0.089409447055 xtb: 6.4.0 (f63f532)
N        -0.96510000000000   -2.11530000000000   -0.24090000000000
C        -2.24700000000000   -1.69840000000000   -0.36220000000000
C        -3.14040000000000   -2.36820000000000   -1.21200000000000
C        -2.70220000000000   -3.47560000000000   -1.93050000000000
C        -1.37780000000000   -3.89880000000000   -1.78760000000000
C        -0.54290000000000   -3.18670000000000   -0.93510000000000
H         0.49810000000000   -3.45630000000000   -0.78940000000000
H        -0.99570000000000   -4.76030000000000   -2.32770000000000
H        -4.16500000000000   -2.02890000000000   -1.31830000000000
C        -2.62130000000000   -0.50950000000000    0.44100000000000
N        -1.62600000000000    0.07330000000000    1.16020000000000
C        -1.89680000000000    1.15240000000000    1.91690000000000
C        -3.17230000000000    1.70330000000000    1.99650000000000
C        -4.20510000000000    1.11740000000000    1.26270000000000
C        -3.92610000000000    0.00250000000000    0.47820000000000
H        -4.71960000000000   -0.46420000000000   -0.09520000000000
H        -3.34630000000000    2.57510000000000    2.62070000000000
H        -1.04450000000000    1.57420000000000    2.43690000000000
Ir        0.42150000000000   -0.81650000000000    0.91330000000000
H         0.87260000000000   -2.23030000000000    1.54050000000000
B         0.50670000000000    0.41560000000000   -0.81540000000000
O         0.19500000000000   -0.04700000000000   -2.09150000000000
C         0.00650000000000    1.10040000000000   -2.95430000000000
C         0.49020000000000    0.74740000000000   -4.35780000000000
H         1.51610000000000    0.37380000000000   -4.33700000000000
H         0.44730000000000    1.62240000000000   -5.01670000000000
H        -0.14740000000000   -0.03390000000000   -4.78430000000000
C        -1.50120000000000    1.39560000000000   -2.96670000000000
H        -1.75370000000000    2.21460000000000   -3.64850000000000
H        -2.03200000000000    0.49450000000000   -3.28930000000000
H        -1.85170000000000    1.65210000000000   -1.96220000000000
C         0.84230000000000    2.20670000000000   -2.22040000000000
O         0.75200000000000    1.78260000000000   -0.83690000000000
C         2.32930000000000    2.18620000000000   -2.59900000000000
H         2.74130000000000    1.18500000000000   -2.45750000000000
H         2.48870000000000    2.51300000000000   -3.63180000000000
H         2.87200000000000    2.86270000000000   -1.93200000000000
C         0.28440000000000    3.62290000000000   -2.33660000000000
H        -0.72650000000000    3.69040000000000   -1.92910000000000
H         0.92130000000000    4.31480000000000   -1.77610000000000
H         0.26430000000000    3.94810000000000   -3.38320000000000
B         1.56300000000000    0.60960000000000    1.84840000000000
O         2.92780000000000    0.55230000000000    2.15020000000000
C         3.36330000000000    1.88660000000000    2.50260000000000
C         4.53140000000000    1.78590000000000    3.47740000000000
H         4.27910000000000    1.16090000000000    4.33690000000000
H         5.39390000000000    1.33790000000000    2.97340000000000
H         4.82390000000000    2.77870000000000    3.83820000000000
C         3.79700000000000    2.56850000000000    1.19670000000000
H         4.20020000000000    3.57090000000000    1.37680000000000
H         4.56740000000000    1.95560000000000    0.72110000000000
H         2.95240000000000    2.63260000000000    0.50540000000000
C         2.05040000000000    2.50090000000000    3.09320000000000
O         1.03750000000000    1.81620000000000    2.31910000000000
C         1.89100000000000    4.00450000000000    2.88650000000000
H         1.87290000000000    4.25440000000000    1.82410000000000
H         0.94940000000000    4.34260000000000    3.33170000000000
H         2.71080000000000    4.55150000000000    3.36630000000000
C         1.82470000000000    2.13200000000000    4.56520000000000
H         1.92610000000000    1.05330000000000    4.71320000000000
H         2.52610000000000    2.65280000000000    5.22540000000000
H         0.80630000000000    2.41580000000000    4.84900000000000
B         2.27820000000000   -1.33090000000000    0.17410000000000
O         2.89460000000000   -2.57740000000000    0.38450000000000
C         4.26930000000000   -2.48200000000000   -0.07210000000000
C         5.10900000000000   -2.05380000000000    1.14010000000000
H         4.76350000000000   -1.08740000000000    1.51750000000000
H         4.98050000000000   -2.79470000000000    1.93590000000000
H         6.17420000000000   -1.99290000000000    0.89300000000000
C         4.71950000000000   -3.84660000000000   -0.58470000000000
H         4.75280000000000   -4.56130000000000    0.24420000000000
H         5.72330000000000   -3.78370000000000   -1.02010000000000
H         4.03500000000000   -4.23600000000000   -1.34170000000000
C         4.16440000000000   -1.36220000000000   -1.16300000000000
O         3.08520000000000   -0.55030000000000   -0.65400000000000
C         5.40720000000000   -0.48870000000000   -1.31550000000000
H         6.27320000000000   -1.09010000000000   -1.61530000000000
H         5.23300000000000    0.26930000000000   -2.08590000000000
H         5.64270000000000    0.02650000000000   -0.38240000000000
C         3.71800000000000   -1.89830000000000   -2.53110000000000
H         2.82530000000000   -2.52160000000000   -2.42740000000000
H         3.46090000000000   -1.05250000000000   -3.17550000000000
H         4.50570000000000   -2.48290000000000   -3.01790000000000
H        -3.38500000000000   -4.00130000000000   -2.59310000000000
H        -5.21400000000000    1.52080000000000    1.29960000000000
C         0.23590000000000   -1.68140000000000    2.96030000000000
C        -0.96981030735302   -2.12762641815948    3.51745901999014
C         1.29702861526744   -1.86518568269489    3.89341587720243
C        -1.12475735457330   -2.65972520064977    4.79669537252232
H        -1.86544947083277   -2.08363488188250    2.91198864691515
C         1.16259442031104   -2.37872587156254    5.18376391721814
I         3.37887687482812   -1.66564892291202    3.74403604595925
C        -0.05280060602779   -2.81167952040926    5.65911926935120
H        -2.09476753358191   -2.99909734863019    5.13188834105908
H         2.04411391682181   -2.50318295455057    5.80261396284775
H        -0.09417098141369   -3.26859746664680    6.63927626440333
96
 energy: -139.707026284683 gnorm: 0.061571048460 xtb: 6.4.0 (f63f532)
N        -0.96262598847561   -2.10490619597094   -0.24731847570548
C        -2.24082388880894   -1.69348034614668   -0.36040340178952
C        -3.13448618286913   -2.36692028216839   -1.20323757842064
C        -2.70260104665975   -3.46888160215316   -1.91912249207100
C        -1.38238997329487   -3.88798858485651   -1.77950034538734
C        -0.55329310711875   -3.17300646479338   -0.93640179219624
H         0.48216633591448   -3.45092359493241   -0.78903820695607
H        -1.00434198885121   -4.74723781316023   -2.31600308849044
H        -4.15537210215615   -2.03171806197399   -1.30875540826729
C        -2.61306828301964   -0.51366027974595    0.43935524605233
N        -1.62110141240881    0.06965361941715    1.14984507027281
C        -1.89939487891072    1.14043467683475    1.89926843735441
C        -3.16674506456668    1.68942908944620    1.98873738614533
C        -4.19772795062431    1.10450556821160    1.26151891860550
C        -3.91666163145545   -0.00342481263220    0.48136433318227
H        -4.70878600529190   -0.46702515311810   -0.08709573946678
H        -3.34109201003198    2.55453355191989    2.61402495151758
H        -1.05563007701966    1.56118867889222    2.42689926374860
Ir        0.42150000000000   -0.81650000000000    0.91330000000000
H         0.87260000000000   -2.23030000000000    1.54050000000000
B         0.49929750404612    0.41756718278475   -0.79795404075561
O         0.17875370985036   -0.03921502872140   -2.06981054819244
C         0.00820400335368    1.09520184111200   -2.94661901118898
C         0.48602509780231    0.74653400678869   -4.35273162752461
H         1.50603695648119    0.37166423200599   -4.33241906923528
H         0.43996769641421    1.62117874643422   -5.00240321620726
H        -0.15139188117538   -0.03090309736502   -4.77333709061956
C        -1.49784108885479    1.39489304258662   -2.96727565567071
H        -1.74197123365919    2.20831019577564   -3.64908865230854
H        -2.02821938681038    0.49743697945442   -3.28695734287755
H        -1.84449031619861    1.64902608790362   -1.96490568867652
C         0.83209725482068    2.20472826642339   -2.21523573845837
O         0.75520134911135    1.77519528054458   -0.83841862479676
C         2.31609564877362    2.18936223256820   -2.60128971838307
H         2.72338329834254    1.19065559754724   -2.45427046864627
H         2.46971618115025    2.51250509704155   -3.63026770783600
H         2.85850006288983    2.86329075611892   -1.93867319678728
C         0.27864814265997    3.62114494065002   -2.33881460227684
H        -0.72546429440761    3.68886839953301   -1.92737402164970
H         0.91665826098027    4.30589387028636   -1.78099242124253
H         0.26025431505763    3.93687351655036   -3.38215550130756
B         1.55140934161168    0.63832732888562    1.83739693497442
O         2.91380447386388    0.59888117012345    2.09976280221939
C         3.36086255194034    1.90704032428428    2.49939845017486
C         4.53149063787558    1.80040256010925    3.47099268634160
H         4.28204775646350    1.17526478009406    4.32362462931504
H         5.38458028550961    1.34767457445512    2.96745853444308
H         4.82061494267412    2.78832478036034    3.82717448879578
C         3.79856695121751    2.58500035015704    1.19831768120620
H         4.20265365704392    3.57874161642444    1.38087860813350
H         4.56191968961129    1.96726924409852    0.72666784223606
H         2.95145908455315    2.63659704942393    0.51497437614442
C         2.04867063781149    2.51274543372451    3.08742590433720
O         1.02958360566921    1.82353578318594    2.33317431950110
C         1.89109576448724    4.01373808628052    2.88824603241690
H         1.86776457683971    4.25589889560197    1.82918971689244
H         0.95314218457687    4.34265760180043    3.33405216184476
H         2.71236780998399    4.54826428968830    3.36462544270846
C         1.83016280564414    2.14141173860588    4.55952261527615
H         1.93424008473063    1.06639469930862    4.70192627760299
H         2.53152095875501    2.65909900379894    5.21099488803028
H         0.81548438786183    2.41745503484480    4.84745541648680
B         2.27820000000000   -1.33090000000000    0.17410000000000
O         2.91148896485493   -2.55684282980716    0.39389419506263
C         4.27199450500639   -2.48541265825573   -0.10088364009247
C         5.16636612585816   -2.06273336991596    1.06261861395873
H         4.82523330283739   -1.09904544604560    1.43506594756154
H         5.04932455260076   -2.79975985714176    1.85550234853047
H         6.21862525766773   -2.00419430341035    0.80886381135212
C         4.71941402228883   -3.85160648719642   -0.60015009076942
H         4.75243456336195   -4.54865828595508    0.23671830467786
H         5.71723800786123   -3.78103364132273   -1.03146986910802
H         4.03149018418422   -4.24190956459556   -1.34491732351429
C         4.16181980512521   -1.35643973138320   -1.16969983043691
O         3.07116202586239   -0.56147957254025   -0.66300058231183
C         5.40608173946756   -0.48797920399729   -1.32247354491886
H         6.26291196456921   -1.09258726181128   -1.61855632824246
H         5.22925993951385    0.26589284615052   -2.08857149507454
H         5.63568934942514    0.02278899536701   -0.39131064602699
C         3.72045432513562   -1.89674119718980   -2.53501491449663
H         2.83004610508755   -2.51488729644122   -2.42407360535357
H         3.46203146026127   -1.05543722560133   -3.17674355700753
H         4.50998761260837   -2.47470062951786   -3.01264693867234
H        -3.38131409802129   -3.99391688329714   -2.57825214995701
H        -5.20181830335876    1.50662636726850    1.30136974543129
C         0.23590000000000   -1.68139999999999    2.96030000000000
C        -0.98896081542980   -2.12141029345242    3.49316123721831
C         1.27441303573918   -1.86521193774890    3.92244690718143
C        -1.17111835252279   -2.65207162712347    4.76999922081493
H        -1.87411152782413   -2.07617504943109    2.87333537566522
C         1.10471542089260   -2.37839383513058    5.20602569729558
I         3.36677630411023   -1.64464393530612    3.80895795576667
C        -0.11764392943567   -2.80633499279250    5.65074476497233
H        -2.14679048066091   -2.98820959181388    5.08664385597394
H         1.97298313347748   -2.50420221482424    5.83946775070840
H        -0.17940013198192   -3.26203108067812    6.62785043321610
96
 energy: -139.713214076193 gnorm: 0.062858935835 xtb: 6.4.0 (f63f532)
N        -0.95735010626743   -2.09544875283880   -0.25191495147673
C        -2.23175171120506   -1.68827891256885   -0.35696108661363
C        -3.12806957144598   -2.36488108969506   -1.19196911229452
C        -2.70459933036483   -3.46165212965445   -1.90608446932228
C        -1.38688215232333   -3.87768587157366   -1.77064857659857
C        -0.56323694856151   -3.15968088119853   -0.93634128189376
H         0.46777971445611   -3.44584468392846   -0.79210320563933
H        -1.01423566200511   -4.73507337014735   -2.30294834734831
H        -4.14596622624829   -2.03409352392949   -1.29275107996685
C        -2.60058466307680   -0.51928156576406    0.43678151836264
N        -1.61221044214756    0.06341730859442    1.14015805852372
C        -1.89966902730664    1.12449786779273    1.88227045156149
C        -3.15894829374505    1.67256595387595    1.98201902065650
C        -4.18949626348479    1.08757425427215    1.26023720515262
C        -3.90451671636820   -0.01229507020781    0.48374350745539
H        -4.69501663788008   -0.47570868282970   -0.07813283800646
H        -3.33377637457442    2.53025882153394    2.60836829180156
H        -1.06537001338167    1.54932515259560    2.41557223104377
Ir        0.42150000000000   -0.81650000000000    0.91330000000000
H         0.87260000000000   -2.23030000000000    1.54050000000000
B         0.49229140501052    0.42219081627880   -0.77700974396882
O         0.15617697446679   -0.03099546956521   -2.04223940082577
C         0.00520348589973    1.08763356296700   -2.93280341237673
C         0.48015780856685    0.74134791952537   -4.34088802011246
H         1.49478133379335    0.36551694077340   -4.32406348953639
H         0.42894163626127    1.61825440285259   -4.97727683668021
H        -0.15909071733995   -0.03029305079072   -4.75642671894366
C        -1.49951514129721    1.39411846296355   -2.96703510151033
H        -1.72999278436370    2.20194603355098   -3.65036609047639
H        -2.02813070689512    0.49958339837995   -3.28447037750982
H        -1.84189822852728    1.64680919028249   -1.96685237151656
C         0.81955875350396    2.20034680773671   -2.20644726334397
O         0.75844209393217    1.76861622964487   -0.83802587271766
C         2.30029764893328    2.19284502654036   -2.60410430151383
H         2.70262949722790    1.19651178382549   -2.45048705949067
H         2.44238399350559    2.51094844102764   -3.63032222156485
H         2.84156882539470    2.86667536200886   -1.94759716473650
C         0.26730116219143    3.61658749481137   -2.33864200810368
H        -0.73006956344263    3.68732412877458   -1.92309644300559
H         0.90892979452102    4.29474956170945   -1.78682891905125
H         0.25132609166034    3.91752952984104   -3.38002099189737
B         1.54322966775705    0.66594429806860    1.83502480620142
O         2.90073405885574    0.64323577858532    2.04556214358495
C         3.35570945887216    1.92597049154024    2.48896814663863
C         4.52757316170024    1.81921940929969    3.46041566882797
H         4.28417869021448    1.19782669525901    4.31019375238690
H         5.37095527523868    1.36209783428491    2.95630394855625
H         4.81079341997503    2.80551467521515    3.80511287085224
C         3.80115020737914    2.61475330372195    1.19905179061648
H         4.20624952391506    3.60025066447002    1.38228567220979
H         4.55710942536320    1.99063136670181    0.73285375701015
H         2.95198044800248    2.65146469183530    0.52291696305677
C         2.04749358796041    2.52654044022771    3.08071782994879
O         1.02388670012114    1.82843181697553    2.35118793932617
C         1.88949115575144    4.02613838639631    2.88806322863594
H         1.85963269634452    4.26201188303215    1.83246229371222
H         0.95671581919687    4.34675476203844    3.33720799436173
H         2.71369583694673    4.54611113731095    3.36012575497065
C         1.84091341488400    2.15603754966657    4.55529911850508
H         1.94963198694004    1.08424081662895    4.68863987079353
H         2.54331229891700    2.67238485693795    5.19538013059322
H         0.82905004429106    2.42264874633959    4.84654355549525
B         2.27820000000001   -1.33090000000000    0.17410000000000
O         2.93042022233425   -2.53118937519675    0.40960189927308
C         4.27451945706752   -2.48066735775875   -0.11774300269355
C         5.19748990342181   -2.06836032392790    1.02323143235755
H         4.86264483275288   -1.11061051281171    1.40260371272633
H         5.09456602100077   -2.79624652965123    1.81871773035026
H         6.23519362644626   -2.01539929114906    0.73686467501806
C         4.71132674747716   -3.84982530508640   -0.61945375352487
H         4.74505567413949   -4.53082776504750    0.22350382239649
H         5.70395586591137   -3.77247919437915   -1.04498702365281
H         4.02438672974698   -4.24601233410265   -1.35453109183308
C         4.15463124277133   -1.35324331284529   -1.17885479344728
O         3.04994052385405   -0.57722579160691   -0.67989492209202
C         5.39819467770280   -0.48465412960579   -1.33381026077063
H         6.24454733250052   -1.09515575555629   -1.62399938510161
H         5.21973089679602    0.26232542679005   -2.09843818069484
H         5.62298258113467    0.02470626252446   -0.40655140564993
C         3.72259906559529   -1.89441387463297   -2.54590230568545
H         2.83523708296429   -2.50800044771329   -2.42593533337651
H         3.46299524155178   -1.05849513788107   -3.18674784254639
H         4.51618767522006   -2.46589109668484   -3.00967598876028
H        -3.38069016007497   -3.98721342879733   -2.55905992147685
H        -5.18947122255369    1.48614657039349    1.30512741008385
C         0.23589999999999   -1.68139999999998    2.96030000000000
C        -1.01383070213112   -2.11142417903970    3.45516424649904
C         1.26108719232407   -1.87192398183788    3.93923026407451
C        -1.23389745760588   -2.63781696924078    4.72624710056502
H        -1.88263271631688   -2.06410193497131    2.81252347180098
C         1.04027527881066   -2.38056038478799    5.21846914164228
I         3.38696294441014   -1.64629293448487    3.62857531830327
C        -0.20048846328123   -2.79200572225304    5.62795638602848
H        -2.21947377028955   -2.96771973645407    5.01701702097495
H         1.88164332188799   -2.50490845818639    5.88516428784590
H        -0.29743002845421   -3.24300857731019    6.60379660168228
96
 energy: -139.721562491344 gnorm: 0.048047355387 xtb: 6.4.0 (f63f532)
N        -0.95092164942125   -2.09414679234793   -0.25319660492181
C        -2.22608829123504   -1.68692331902578   -0.35710977949253
C        -3.12730759826420   -2.36325198174410   -1.18818373805869
C        -2.70751567107302   -3.46101218921008   -1.90321675512134
C        -1.38717366159910   -3.87799870272451   -1.77053919956458
C        -0.56057870279912   -3.15893237011745   -0.93784874423150
H         0.47123370730890   -3.44645443339960   -0.79896903511864
H        -1.01715038132788   -4.73678297690610   -2.30151745599402
H        -4.14642790139416   -2.03230584844482   -1.28182532633358
C        -2.59313700609326   -0.52089799041612    0.43342156784596
N        -1.60409907527517    0.06122788842388    1.13733437202532
C        -1.89434084495303    1.12034286634599    1.88042898375624
C        -3.15521657290681    1.66691068869106    1.98204396391599
C        -4.18769194789156    1.07960380762124    1.25960259953217
C        -3.89962001818096   -0.01835769879378    0.48147742360767
H        -4.68925061800728   -0.48683680391209   -0.07844885965735
H        -3.33076442855439    2.52248400795807    2.61003707230496
H        -1.06207775677419    1.55047761416875    2.41322170982150
Ir        0.42150000000000   -0.81650000000000    0.91330000000000
H         0.87260000000000   -2.23030000000000    1.54050000000000
B         0.48991365595702    0.42803332009290   -0.76793659335419
O         0.14353843691295   -0.03073728669792   -2.02907960455655
C        -0.00235989467204    1.08325178208266   -2.92100699171760
C         0.47693189675412    0.73395074544282   -4.32769748645901
H         1.49224827427885    0.35768020588744   -4.31472482611621
H         0.42387076440851    1.61525070317631   -4.95857710170721
H        -0.16575928639319   -0.03473942307265   -4.74488999742707
C        -1.50639173168558    1.39469762462672   -2.96546905156909
H        -1.72649116935064    2.20257449516142   -3.65277757884043
H        -2.03381476292333    0.49952426331183   -3.28456161893404
H        -1.85012889211217    1.65030533370245   -1.96625610163056
C         0.81431817324041    2.19725973262473   -2.19894589454637
O         0.75953992460913    1.77193038365041   -0.83173309386331
C         2.29348744272545    2.19371685719462   -2.60470210384801
H         2.69633460529793    1.19755297403991   -2.44889920482007
H         2.42543446396688    2.50879424333663   -3.63358594113918
H         2.83435388429359    2.87275994195076   -1.95250782986704
C         0.25802098802570    3.61249129670754   -2.33479303330272
H        -0.73925043514461    3.68771582894489   -1.91800759230237
H         0.90405492201934    4.29253184379641   -1.78925096707913
H         0.24191910441626    3.90407365631188   -3.37924534922404
B         1.54145625266839    0.67823905237210    1.83187237361662
O         2.89688146479315    0.65658004921254    2.02460959996523
C         3.34882277500193    1.93562970699265    2.47502882939434
C         4.51936198081194    1.82798457500603    3.44953635705124
H         4.27864877972221    1.21090108080856    4.30437087197903
H         5.36285741018564    1.37112427954619    2.94365881458339
H         4.80124006308019    2.81811379552390    3.78730462123743
C         3.80250419883069    2.64327768026867    1.19533290327001
H         4.20865911317251    3.62849966240144    1.38114902509471
H         4.55914292931357    2.01700135571136    0.73179076393076
H         2.95464658249973    2.67935136522882    0.51729139955984
C         2.04388780359082    2.53483580842845    3.07831554748588
O         1.01871520706799    1.83285431202957    2.35758820871690
C         1.88493468223561    4.03572859548720    2.88618823458877
H         1.85146640666340    4.27422242018977    1.83055238676794
H         0.95509583892885    4.35726660170031    3.34189665411195
H         2.71373631675747    4.55121530616446    3.35622130509748
C         1.84977775582499    2.16675851585717    4.55596473106607
H         1.96292571732389    1.09411165512208    4.68375472417152
H         2.55531073748940    2.68675615595276    5.19071821790114
H         0.83727346815325    2.42988488973932    4.84984635994758
B         2.27820000000001   -1.33090000000001    0.17410000000000
O         2.94695628595650   -2.51811083347642    0.42722048166072
C         4.27814999485643   -2.47462040044445   -0.13154804292616
C         5.24055812152036   -2.07009390055656    0.98406739368517
H         4.93160241983768   -1.10337631258941    1.36529811180647
H         5.16242416009088   -2.79745708946397    1.78500241050292
H         6.26873708677263   -2.03052725407972    0.64749449598285
C         4.69777371993955   -3.84962766470802   -0.64027770857486
H         4.73678532928464   -4.52450955576218    0.20834211655215
H         5.68973830299213   -3.77501144903580   -1.06940332804334
H         4.00825703730575   -4.25275652373619   -1.37019508227764
C         4.14324920527699   -1.35113054027380   -1.19506222110585
O         3.03412873403573   -0.58189741028593   -0.69740391370857
C         5.38575951199526   -0.47798741290501   -1.34649570491003
H         6.23072307214635   -1.09365113724106   -1.63253928767210
H         5.21088414164272    0.26683527081698   -2.11417136199381
H         5.61105315822959    0.03351841656141   -0.41974083064116
C         3.71930979063738   -1.89356502827128   -2.56381428341249
H         2.83393074118751   -2.50955190944160   -2.44013027776095
H         3.46058457792182   -1.05844829157069   -3.20665025498029
H         4.51934186102019   -2.46429235675487   -3.01829530127147
H        -3.38682598431285   -3.98814338239045   -2.55172773621433
H        -5.18935170794424    1.47377313704908    1.30797268504111
C         0.23589999999999   -1.68139999999997    2.96030000000000
C        -1.03041191029823   -2.10166925448977    3.42139691662954
C         1.23618553248034   -1.87551734440195    3.95039421105481
C        -1.28062181443977   -2.62282967607108    4.68801544510138
H        -1.88338373828328   -2.05269552544458    2.75597123974382
C         0.99688556922150   -2.37505085887716    5.22483884735891
I         3.33183194304303   -1.67520993654779    3.71870793616302
C        -0.26188605263225   -2.77586563000966    5.60982752924487
H        -2.27618610465875   -2.94820814395117    4.95576608040556
H         1.82909848176501   -2.49831485398413    5.90406814664833
H        -0.39070657816254   -3.22344352393824    6.58552945925617
96
 energy: -139.726902832800 gnorm: 0.041539439216 xtb: 6.4.0 (f63f532)
N        -0.94169442559528   -2.09542485168768   -0.25870871495027
C        -2.21957239515686   -1.68794111175035   -0.35991547535551
C        -3.12611494784138   -2.36484489804235   -1.18626673314056
C        -2.70971731032361   -3.46530299658949   -1.90189320796094
C        -1.38636418851716   -3.88267718398462   -1.77448141266640
C        -0.55290085834870   -3.16235225749803   -0.94562715925884
H         0.48026203802676   -3.45104113826484   -0.81175135324246
H        -1.01882838281505   -4.74370600399359   -2.30576264924261
H        -4.14663665817584   -2.03150967486765   -1.27301759195990
C        -2.58576785524374   -0.52188780072930    0.43024221814376
N        -1.59471551890729    0.06291782528267    1.13451851139442
C        -1.88704373158806    1.12300864042730    1.88011765185115
C        -3.15263343413645    1.66350514686763    1.98352669471447
C        -4.18628814685767    1.07226403909112    1.26113478149403
C        -3.89490474889175   -0.02415758157228    0.47969815804156
H        -4.68291528684558   -0.49787976677986   -0.08094011093297
H        -3.33010788709602    2.51740150782584    2.61481160258398
H        -1.05599954708564    1.55653100361355    2.41394308766302
Ir        0.42150000000000   -0.81650000000000    0.91330000000000
H         0.87260000000000   -2.23030000000000    1.54050000000000
B         0.48501588096569    0.43552240150958   -0.75755264267255
O         0.12867099042983   -0.03082993375515   -2.01460203962445
C        -0.01261509898446    1.07965458120076   -2.90807405575192
C         0.47144209607900    0.72456720606858   -4.31218163218682
H         1.48743457065648    0.34617982142451   -4.29817382025608
H         0.42154939513596    1.60801211064450   -4.94335817556693
H        -0.17341314493058   -0.04318195741950   -4.73183693890170
C        -1.51573345418716    1.39660202045932   -2.96257685391779
H        -1.72660708549527    2.20472170091465   -3.65507752766899
H        -2.04422245204954    0.50168054654333   -3.28437250163755
H        -1.86740561685249    1.65782080913786   -1.96649922581686
C         0.80746745527322    2.19653583853409   -2.19040300209520
O         0.76008241621013    1.77846965107198   -0.82185254572986
C         2.28483212801116    2.19484731746151   -2.60488952652760
H         2.69291671334044    1.20023295967435   -2.44695908241153
H         2.40762583093869    2.50542095519876   -3.63788428048746
H         2.82740032141790    2.88140068380142   -1.95981779318004
C         0.24724354077829    3.61047423266092   -2.33013379262930
H        -0.75013120008457    3.68828369474637   -1.91054690595883
H         0.89607375623801    4.29646161506090   -1.79213897828230
H         0.22619625393887    3.89448742637557   -3.37854760451167
B         1.54181653404698    0.68488126610557    1.82897141954849
O         2.89959682749218    0.67165408847834    2.00664754355836
C         3.34400150389177    1.95129282666857    2.46184970596446
C         4.51453329565565    1.83711982280323    3.43589252763838
H         4.27266268190303    1.22162702667232    4.29397623963338
H         5.35930341098375    1.38045864327611    2.92841536679640
H         4.79665656164350    2.83064443806694    3.77113297910948
C         3.80019134026272    2.67428953923015    1.18873383952640
H         4.20359232370943    3.66014958858692    1.38790960968943
H         4.56416610332724    2.05628623792788    0.72309129517105
H         2.95717191326631    2.72125875049159    0.50394746393269
C         2.03841280219261    2.54379942076700    3.07574491109933
O         1.01103220033566    1.83395670005551    2.36523166236984
C         1.87637428650166    4.04610141197759    2.88339775112421
H         1.83678928158901    4.29009956806326    1.82767021800656
H         0.95008397316080    4.37085401206252    3.34834331466852
H         2.71026771462888    4.56189435287816    3.34938892991802