96
 energy: -139.691224754239 gnorm: 0.089460563650 xtb: 6.4.0 (f63f532)
N        -0.96510000000000   -2.11530000000000   -0.24090000000000
C        -2.24700000000000   -1.69840000000000   -0.36220000000000
C        -3.14040000000000   -2.36820000000000   -1.21200000000000
C        -2.70220000000000   -3.47560000000000   -1.93050000000000
C        -1.37780000000000   -3.89880000000000   -1.78760000000000
C        -0.54290000000000   -3.18670000000000   -0.93510000000000
H         0.49810000000000   -3.45630000000000   -0.78940000000000
H        -0.99570000000000   -4.76030000000000   -2.32770000000000
H        -4.16500000000000   -2.02890000000000   -1.31830000000000
C        -2.62130000000000   -0.50950000000000    0.44100000000000
N        -1.62600000000000    0.07330000000000    1.16020000000000
C        -1.89680000000000    1.15240000000000    1.91690000000000
C        -3.17230000000000    1.70330000000000    1.99650000000000
C        -4.20510000000000    1.11740000000000    1.26270000000000
C        -3.92610000000000    0.00250000000000    0.47820000000000
H        -4.71960000000000   -0.46420000000000   -0.09520000000000
H        -3.34630000000000    2.57510000000000    2.62070000000000
H        -1.04450000000000    1.57420000000000    2.43690000000000
Ir        0.42150000000000   -0.81650000000000    0.91330000000000
H         0.87260000000000   -2.23030000000000    1.54050000000000
B         0.50670000000000    0.41560000000000   -0.81540000000000
O         0.19500000000000   -0.04700000000000   -2.09150000000000
C         0.00650000000000    1.10040000000000   -2.95430000000000
C         0.49020000000000    0.74740000000000   -4.35780000000000
H         1.51610000000000    0.37380000000000   -4.33700000000000
H         0.44730000000000    1.62240000000000   -5.01670000000000
H        -0.14740000000000   -0.03390000000000   -4.78430000000000
C        -1.50120000000000    1.39560000000000   -2.96670000000000
H        -1.75370000000000    2.21460000000000   -3.64850000000000
H        -2.03200000000000    0.49450000000000   -3.28930000000000
H        -1.85170000000000    1.65210000000000   -1.96220000000000
C         0.84230000000000    2.20670000000000   -2.22040000000000
O         0.75200000000000    1.78260000000000   -0.83690000000000
C         2.32930000000000    2.18620000000000   -2.59900000000000
H         2.74130000000000    1.18500000000000   -2.45750000000000
H         2.48870000000000    2.51300000000000   -3.63180000000000
H         2.87200000000000    2.86270000000000   -1.93200000000000
C         0.28440000000000    3.62290000000000   -2.33660000000000
H        -0.72650000000000    3.69040000000000   -1.92910000000000
H         0.92130000000000    4.31480000000000   -1.77610000000000
H         0.26430000000000    3.94810000000000   -3.38320000000000
B         1.56300000000000    0.60960000000000    1.84840000000000
O         2.92780000000000    0.55230000000001    2.15020000000000
C         3.36330000000000    1.88660000000000    2.50260000000000
C         4.53140000000000    1.78590000000000    3.47740000000000
H         4.27910000000000    1.16090000000000    4.33690000000000
H         5.39390000000000    1.33790000000000    2.97340000000000
H         4.82390000000000    2.77870000000000    3.83820000000000
C         3.79700000000000    2.56850000000000    1.19670000000000
H         4.20020000000000    3.57090000000000    1.37680000000000
H         4.56740000000000    1.95560000000000    0.72110000000000
H         2.95240000000000    2.63260000000000    0.50540000000000
C         2.05040000000000    2.50090000000000    3.09320000000000
O         1.03750000000000    1.81620000000000    2.31910000000000
C         1.89100000000000    4.00450000000000    2.88650000000000
H         1.87290000000000    4.25440000000000    1.82410000000000
H         0.94940000000000    4.34260000000000    3.33170000000000
H         2.71080000000000    4.55150000000000    3.36630000000000
C         1.82470000000000    2.13200000000000    4.56520000000000
H         1.92610000000000    1.05330000000000    4.71320000000000
H         2.52610000000000    2.65280000000000    5.22540000000000
H         0.80630000000000    2.41580000000000    4.84900000000000
B         2.27820000000000   -1.33090000000000    0.17410000000000
O         2.89460000000000   -2.57740000000000    0.38450000000000
C         4.26930000000000   -2.48200000000000   -0.07210000000000
C         5.10900000000000   -2.05380000000000    1.14010000000000
H         4.76350000000000   -1.08740000000000    1.51750000000000
H         4.98050000000000   -2.79470000000000    1.93590000000000
H         6.17420000000000   -1.99290000000000    0.89300000000000
C         4.71950000000000   -3.84660000000000   -0.58470000000000
H         4.75280000000000   -4.56130000000000    0.24420000000000
H         5.72330000000000   -3.78370000000000   -1.02010000000000
H         4.03500000000000   -4.23600000000000   -1.34170000000000
C         4.16440000000000   -1.36220000000000   -1.16300000000000
O         3.08520000000000   -0.55030000000000   -0.65400000000000
C         5.40720000000000   -0.48870000000000   -1.31550000000000
H         6.27320000000000   -1.09010000000000   -1.61530000000000
H         5.23300000000000    0.26930000000000   -2.08590000000000
H         5.64270000000000    0.02650000000000   -0.38240000000000
C         3.71800000000000   -1.89830000000000   -2.53110000000000
H         2.82530000000000   -2.52160000000000   -2.42740000000000
H         3.46090000000000   -1.05250000000000   -3.17550000000000
H         4.50570000000000   -2.48290000000000   -3.01790000000000
H        -3.38500000000000   -4.00130000000000   -2.59310000000000
H        -5.21400000000000    1.52080000000000    1.29960000000000
C         0.23590000000000   -1.68140000000000    2.96030000000000
C        -0.96926802059336   -2.12978084824784    3.51673005255304
C         1.29725246038246   -1.86572200864506    3.89287854673263
C        -1.12377037630653   -2.66452111085536    4.79488615901408
H        -1.86514953588198   -2.08514265062476    2.91141730931255
C         1.16338862799519   -2.38234465474287    5.18222149738187
I         3.37932516185764   -1.66357092651473    3.74534794029492
C        -0.05156015388364   -2.81753299544656    5.65682478681801
H        -2.09345182656158   -3.00536591628460    5.12950873060920
H         2.04496601108678   -2.50767442193097    5.80056874432312
H        -0.09232950671244   -3.27667033119420    6.63577947473282
96
 energy: -139.706949037216 gnorm: 0.061592058948 xtb: 6.4.0 (f63f532)
N        -0.96261917704657   -2.10491393550398   -0.24731664009188
C        -2.24081875687850   -1.69348883640106   -0.36039886311286
C        -3.13448179876454   -2.36692715419698   -1.20323545962945
C        -2.70259621139059   -3.46888528446870   -1.91912499214770
C        -1.38238259283272   -3.88798858447632   -1.77950845380454
C        -0.55328558096366   -3.17300863401483   -0.93640813275898
H         0.48217522313899   -3.45092334023369   -0.78904794049718
H        -1.00433360633516   -4.74723573748397   -2.31601500021497
H        -4.15536900703350   -2.03172645812336   -1.30875068362923
C        -2.61306368148918   -0.51367161610408    0.43936460401690
N        -1.62109326757795    0.06965699286086    1.14984088806032
C        -1.89939354932542    1.14042757213790    1.89928183981924
C        -3.16674751069563    1.68941185276094    1.98876017567176
C        -4.19772881923581    1.10448819861865    1.26153860168394
C        -3.91666055801640   -0.00344160110791    0.48138336470186
H        -4.70878454427269   -0.46704139650495   -0.08707835768290
H        -3.34109555162969    2.55451615891529    2.61404783009792
H        -1.05562904191065    1.56118777902112    2.42690976114956
Ir        0.42150000000000   -0.81650000000000    0.91330000000000
H         0.87260000000000   -2.23030000000000    1.54050000000000
B         0.49930535124379    0.41755394224460   -0.79797573442281
O         0.17875051146996   -0.03921361807441   -2.06983243464781
C         0.00819162844722    1.09521384506418   -2.94662360037830
C         0.48601131431612    0.74655130131328   -4.35273665700110
H         1.50602453029424    0.37168383485084   -4.33242450150468
H         0.43995084058288    1.62119761625521   -5.00240535459936
H        -0.15140408931089   -0.03088782963921   -4.77334140518669
C        -1.49785539709253    1.39489788206586   -2.96726633302379
H        -1.74199348463810    2.20831749713107   -3.64907328923016
H        -2.02823221921550    0.49744094095387   -3.28694910013380
H        -1.84450132755156    1.64902497440726   -1.96489310572242
C         0.83208560009751    2.20473599535578   -2.21523421046401
O         0.75519304194699    1.77518639382010   -0.83842167746746
C         2.31608499226459    2.18937566017740   -2.60128631655340
H         2.72337699277999    1.19066942474432   -2.45427347254846
H         2.46970498249816    2.51252383646372   -3.63026257535213
H         2.85848830991575    2.86330224388766   -1.93866651667936
C         0.27863191948154    3.62115215584345   -2.33879917198822
H        -0.72548033798108    3.68887041621746   -1.92735669077850
H         0.91664111715423    4.30590021111492   -1.78097446439127
H         0.26023457152819    3.93688759379791   -3.38213795015844
B         1.55136048547281    0.63842228466222    1.83729852817411
O         2.91376864143555    0.59900828605888    2.09955722970031
C         3.36084959599033    1.90710980190882    2.49936107682853
C         4.53149002756906    1.80048337133486    3.47095849924995
H         4.28206696571147    1.17538721448448    4.32362021773632
H         5.38457475966112    1.34771673778415    2.96744751187613
H         4.82063072353863    2.78840170800279    3.82712433141725
C         3.79856500421556    2.58505725415516    1.19828968523049
H         4.20265811013250    3.57878877954661    1.38086194088202
H         4.56191471588279    1.96730635828931    0.72665687912137
H         2.95145567707304    2.63664228309413    0.51494844324818
C         2.04865392936877    2.51276551064972    3.08742615667757
O         1.02954105703956    1.82358529309966    2.33317426075619
C         1.89108321266844    4.01375378496025    2.88826049339363
H         1.86775166435054    4.25591328030964    1.82920375550199
H         0.95313071630578    4.34266518870729    3.33407209726548
H         2.71236105037612    4.54826856428715    3.36464035279835
C         1.83016299766517    2.14141035111381    4.55952071743120
H         1.93424915411817    1.06639716065176    4.70192555244969
H         2.53152445178382    2.65908765975121    5.21099544641903
H         0.81548605812694    2.41744650935276    4.84746615224074
B         2.27820000000000   -1.33090000000000    0.17410000000000
O         2.91142989086801   -2.55687012613528    0.39385364195444
C         4.27195487674017   -2.48541279070480   -0.10083741062369
C         5.16609135724714   -2.06274860528584    1.06284534145668
H         4.82496960670248   -1.09904215796632    1.43523020214352
H         5.04890475397412   -2.79972543585837    1.85575831178854
H         6.21838941949535   -2.00423144611844    0.80916745487945
C         4.71941763836108   -3.85158474738885   -0.60013950309463
H         4.75243910253959   -4.54866361879668    0.23670469563978
H         5.71724536009338   -3.78099447314502   -1.03145280812368
H         4.03151206548387   -4.24188271680815   -1.34492882445256
C         4.16182631400098   -1.35644296667641   -1.16967835230769
O         3.07117027533890   -0.56147616195430   -0.66298845915658
C         5.40608102126114   -0.48797103007377   -1.32246636367511
H         6.26291311584801   -1.09257137379331   -1.61855913713270
H         5.22925025159908    0.26589977006618   -2.08856589203679
H         5.63569380358895    0.02280161263659   -0.39130764629647
C         3.72045907380448   -1.89672701552655   -2.53500668487397
H         2.83004848765516   -2.51487331228130   -2.42407903988935
H         3.46203473559212   -1.05541929356972   -3.17673232612311
H         4.50998731572015   -2.47468270677413   -3.01265213466673
H        -3.38130966805339   -3.99392061541581   -2.57825494685539
H        -5.20182007349306    1.50660758507017    1.30138978788708
C         0.23590000000000   -1.68140000000000    2.96030000000000
C        -0.98851306470745   -2.12341856016632    3.49249518944972
C         1.27476079951489   -1.86605599070216    3.92194390499537
C        -1.17015669308346   -2.65682423789207    4.76822874131859
H        -1.87378187944422   -2.07770672054561    2.87278993875946
C         1.10552493882260   -2.38221023787707    5.20446734364899
I         3.36731351922610   -1.64243901180014    3.80980984777251
C        -0.11638634017694   -2.81223350838948    5.64842732469141
H        -2.14549797292042   -2.99442850489844    5.08431297860967
H         1.97386730176831   -2.50881159768088    5.83755088541281
H        -0.17753075279640   -3.27020705388176    6.62444795722006
96
 energy: -139.713161711673 gnorm: 0.062820323921 xtb: 6.4.0 (f63f532)
N        -0.95732742028654   -2.09548954778189   -0.25189411938895
C        -2.23174555663864   -1.68830515328538   -0.35696150120784
C        -3.12807661195498   -2.36488781646187   -1.19198525461818
C        -2.70459485474593   -3.46167082418767   -1.90612055585877
C        -1.38685401956508   -3.87771031022447   -1.77069391248994
C        -0.56318083410474   -3.15972007338866   -0.93635741096303
H         0.46785539812984   -3.44585627394831   -0.79213995060241
H        -1.01419995619394   -4.73510359650018   -2.30300956049145
H        -4.14599020544179   -2.03409072357768   -1.29274509008318
C        -2.60058177237039   -0.51929555007834    0.43679467963064
N        -1.61218641225521    0.06342547202905    1.14017006312318
C        -1.89964123891072    1.12450406330377    1.88234638446039
C        -3.15895881721075    1.67255055113660    1.98208871563276
C        -4.18951423447084    1.08755203463057    1.26028149186584
C        -3.90453062529181   -0.01233101625507    0.48376703355047
H        -4.69503293686962   -0.47576751550696   -0.07811924323885
H        -3.33379036286871    2.53025335959885    2.60844582551660
H        -1.06532068767665    1.54935478478300    2.41561638973070
Ir        0.42150000000000   -0.81650000000000    0.91330000000000
H         0.87260000000000   -2.23030000000000    1.54050000000000
B         0.49230934846956    0.42217045089495   -0.77708711310624
O         0.15619399399853   -0.03101665197216   -2.04232373312939
C         0.00515556299431    1.08766944010292   -2.93281068950599
C         0.48013170402009    0.74138215280992   -4.34088582191234
H         1.49477814885543    0.36555821739302   -4.32407125764977
H         0.42891424524310    1.61830432999949   -4.97728470707722
H        -0.15912287975438   -0.03026761097998   -4.75644595926908
C        -1.49956652941537    1.39413754601137   -2.96700987894895
H        -1.73006176815010    2.20198977568530   -3.65033744157110
H        -2.02817796869138    0.49958801537771   -3.28446059779185
H        -1.84195208067477    1.64682848841316   -1.96681373461525
C         0.81954982060065    2.20036545784482   -2.20644028308019
O         0.75841129805002    1.76863008034330   -0.83800757286924
C         2.30029271902259    2.19287083877489   -2.60409046226337
H         2.70264693117727    1.19652997024378   -2.45049909569537
H         2.44237215901022    2.51099249961771   -3.63032346571108
H         2.84156072617881    2.86671666847189   -1.94757093941766
C         0.26726302350138    3.61660118456774   -2.33858963842170
H        -0.73012781230048    3.68733736948732   -1.92304777777516
H         0.90889858821487    4.29478545169132   -1.78677584560318
H         0.25127540947766    3.91756920678310   -3.37998175265996
B         1.54316592598978    0.66607370552683    1.83487205583983
O         2.90070806518862    0.64338978105048    2.04524592410191
C         3.35567077314965    1.92609402529660    2.48884481228517
C         4.52754747531468    1.81940513682646    3.46031470406023
H         4.28419672420029    1.19816261345430    4.31022746774150
H         5.37094656652569    1.36220083547566    2.95625443707112
H         4.81081248891031    2.80573373897000    3.80493180371831
C         3.80114782569215    2.61494159066692    1.19897532940002
H         4.20627021368986    3.60044749905677    1.38221235299214
H         4.55711720435186    1.99077551193233    0.73281216583136
H         2.95198735951721    2.65165573382505    0.52281337119998
C         2.04745879463815    2.52658379236745    3.08072428008760
O         1.02381651900699    1.82853151487551    2.35115597392940
C         1.88944859224906    4.02618440895279    2.88809120065327
H         1.85959703145547    4.26208861282013    1.83247972740894
H         0.95667171535991    4.34681330832780    3.33726441258616
H         2.71367316492730    4.54615993942567    3.36016254766005
C         1.84092339404255    2.15604225458077    4.55530342368727
H         1.94966124273305    1.08423994084338    4.68864970323892
H         2.54333629974993    2.67238898087428    5.19540527451735
H         0.82904933317872    2.42265032039644    4.84657001623616
B         2.27820000000000   -1.33090000000000    0.17410000000000
O         2.93030778936556   -2.53127761305411    0.40952149841707
C         4.27446242621682   -2.48065619183587   -0.11765092014257
C         5.19710265316051   -2.06833431927767    1.02360751914654
H         4.86233768944653   -1.11047703216132    1.40279943750709
H         5.09393806313204   -2.79610366844525    1.81920620663513
H         6.23489572327555   -2.01548920624947    0.73732259577506
C         4.71132109138505   -3.84978181391744   -0.61945529181673
H         4.74508095387768   -4.53086361087954    0.22345838269519
H         5.70396698391689   -3.77242139220498   -1.04501175561408
H         4.02440307682839   -4.24597627155711   -1.35458263063916
C         4.15462308410758   -1.35325168926304   -1.17883912196832
O         3.04997263365969   -0.57718090058351   -0.67986693013163
C         5.39817832113313   -0.48463609974058   -1.33378931121198
H         6.24455879067394   -1.09512408217458   -1.62401022983844
H         5.21971338555901    0.26235993763834   -2.09843037905820
H         5.62299818140671    0.02474091892352   -0.40652609748238
C         3.72258889356019   -1.89438301764460   -2.54591429139525
H         2.83522141368554   -2.50799333907720   -2.42598178709906
H         3.46298887550974   -1.05843742243301   -3.18675683738064
H         4.51618194770938   -2.46586713321855   -3.00972297907501
H        -3.38070783656469   -3.98723755540408   -2.55909546454297
H        -5.18951000173278    1.48611398638212    1.30517287802614
C         0.23590000000000   -1.68140000000001    2.96030000000000
C        -1.01346103872109   -2.11334998038697    3.45451871643271
C         1.26136859451928   -1.87287734270922    3.93891125547258
C        -1.23298378614369   -2.64252181812643    4.72452252333733
H        -1.88226256566361   -2.06554287833276    2.81198531664519
C         1.04108129154365   -2.38452061594025    5.21695026783412
I         3.38713542933198   -1.64461963834224    3.62981094695446
C        -0.19926283387906   -2.79795902849504    5.62567589458842
H        -2.21826299114184   -2.97381754909887    5.01473535896023
H         1.88267165682103   -2.50965604409317    5.88328851155679
H        -0.29561377842678   -3.25133106971016    6.60055603499302
96
 energy: -139.721502560463 gnorm: 0.048147147793 xtb: 6.4.0 (f63f532)
N        -0.95087654356690   -2.09414354331287   -0.25319631420182
C        -2.22603799151055   -1.68692538078820   -0.35708768477584
C        -3.12727028981814   -2.36324975197199   -1.18815408577926
C        -2.70750693922559   -3.46098511668760   -1.90320080985453
C        -1.38715892217888   -3.87795664738164   -1.77055238676147
C        -0.56057910970199   -3.15889523223973   -0.93787076003694
H         0.47122599309998   -3.44643816385847   -0.79902058697145
H        -1.01715164767875   -4.73672629846207   -2.30153382879432
H        -4.14638578760899   -2.03231698009936   -1.28176757672910
C        -2.59307511088346   -0.52095070101218    0.43343537759127
N        -1.60403757427129    0.06119485864011    1.13730836903285
C        -1.89432624164743    1.12025734982049    1.88042009673760
C        -3.15518992299167    1.66680050228707    1.98208969161340
C        -4.18766816030503    1.07949123067705    1.25965487913431
C        -3.89957347752540   -0.01843759866061    0.48153128355441
H        -4.68919910029041   -0.48692533830061   -0.07837247907326
H        -3.33074516895665    2.52233979179512    2.61010026060359
H        -1.06209662361753    1.55043206814652    2.41321997774102
Ir        0.42150000000000   -0.81650000000000    0.91330000000000
H         0.87260000000000   -2.23030000000000    1.54050000000000
B         0.48989215229752    0.42801977274193   -0.76793156348239
O         0.14345996692763   -0.03070266837639   -2.02905979678894
C        -0.00240668287197    1.08326865884751   -2.92097188164450
C         0.47687658342724    0.73400556208262   -4.32767701299924
H         1.49218373707849    0.35774159068847   -4.31472813449882
H         0.42378615890165    1.61532636017758   -4.95849964929904
H        -0.16581898108539   -0.03466733249868   -4.74486268044996
C        -1.50643970257772    1.39472463935404   -2.96544467135581
H        -1.72651351776733    2.20259900270583   -3.65273682782741
H        -2.03385099476922    0.49955664672255   -3.28453821402737
H        -1.85014604612771    1.65030574045514   -1.96622401613047
C         0.81424798058430    2.19726938765864   -2.19890128339226
O         0.75952463568258    1.77188929443526   -0.83173365135678
C         2.29340957335337    2.19377834836734   -2.60469745611067
H         2.69625266215325    1.19762049468294   -2.44889433224977
H         2.42531268048729    2.50886202093531   -3.63356892546529
H         2.83426306391770    2.87281816244745   -1.95250723308898
C         0.25793740185366    3.61250255308504   -2.33472881647239
H        -0.73931528404970    3.68772747834797   -1.91792697425635
H         0.90398547066745    4.29251851017352   -1.78919675837147
H         0.24183675146824    3.90406320142083   -3.37917074653312
B         1.54137293156174    0.67850461456808    1.83172929500984
O         2.89679170729608    0.65697106061905    2.02405778184569
C         3.34876309624206    1.93586141192850    2.47485388377583
C         4.51932912900955    1.82829506376782    3.44937292980023
H         4.27868813828565    1.21144174815975    4.30436601782359
H         5.36278003429649    1.37129839182687    2.94356338277195
H         4.80122702319346    2.81847006057377    3.78693003850937
C         3.80251215694487    2.64363475434108    1.19525643905119
H         4.20869820124795    3.62881772478454    1.38106138358742
H         4.55911693643062    2.01728162600526    0.73177532725851
H         2.95466145236957    2.67963282821938    0.51721837370003
C         2.04384666603793    2.53495290696274    3.07828565810631
O         1.01862806729698    1.83296498510813    2.35765241854274
C         1.88487543977409    4.03584364672055    2.88623548429157
H         1.85139013798504    4.27433876350600    1.83061293960942
H         0.95505854128338    4.35734074795148    3.34197822107890
H         2.71370002927066    4.55125651820465    3.35626559692715
C         1.84982329195454    2.16682520500455    4.55594001553127
H         1.96300061041926    1.09419126975639    4.68369372933178
H         2.55536156240419    2.68680603425290    5.19066783685598
H         0.83732480401435    2.42989602135608    4.84985425376293
B         2.27820000000000   -1.33090000000000    0.17410000000000
O         2.94689749438863   -2.51808972806863    0.42716684166110
C         4.27808192444404   -2.47462409286726   -0.13157172030857
C         5.24036651530423   -2.07011750376514    0.98414310160085
H         4.93143990102388   -1.10332420449216    1.36516270238872
H         5.16198024974653   -2.79735186617257    1.78514128465182
H         6.26858341013643   -2.03069562112772    0.64772285383127
C         4.69777487060127   -3.84959602655300   -0.64034999749459
H         4.73681899119807   -4.52447691211002    0.20825276198295
H         5.68972825394366   -3.77488406087998   -1.06944869104662
H         4.00829575430810   -4.25274138266982   -1.37027518469087
C         4.14322800831131   -1.35111021887814   -1.19505244979869
O         3.03408483569247   -0.58192096401032   -0.69740603734444
C         5.38574751374603   -0.47797027223515   -1.34647044684041
H         6.23067808793967   -1.09364215785062   -1.63253479874526
H         5.21085532932821    0.26684762336404   -2.11413005792962
H         5.61104860730972    0.03352129964858   -0.41972334494715
C         3.71932230125929   -1.89350971778766   -2.56383444868350
H         2.83394757421785   -2.50948552856177   -2.44014986617417
H         3.46059845624877   -1.05838077881343   -3.20663772663913
H         4.51936475655298   -2.46420327149089   -3.01830000440546
H        -3.38681319572209   -3.98811732937153   -2.55169285045261
H        -5.18932003280606    1.47364248260437    1.30804611074698
C         0.23590000000001   -1.68140000000002    2.96030000000000
C        -1.03013396964898   -2.10356568819753    3.42064069882918
C         1.23633657319210   -1.87648560770662    3.95023377452408
C        -1.27993203099345   -2.62747637344853    4.68620661179327
H        -1.88307353568503   -2.05394327251176    2.75528682902110
C         0.99743515553652   -2.37901245315539    5.22346515257224
I         3.33170555588195   -1.67348680419409    3.71996398672723
C        -0.26098078580392   -2.78178110364128    5.60755997169376
H        -2.27524253985682   -2.95416373901958    4.95332442165137
H         1.82981720446284   -2.50309308332709    5.90240556747464
H        -0.38932732165860   -3.23178532443888    6.58227578851105
96
 energy: -139.726842689721 gnorm: 0.041620514421 xtb: 6.4.0 (f63f532)
N        -0.94164566924995   -2.09542236796169   -0.25871599198813
C        -2.21952339635787   -1.68794963201368   -0.35989171045500
C        -3.12607293337897   -2.36484501071361   -1.18624404353661
C        -2.70969597337899   -3.46527256877402   -1.90189549831964
C        -1.38633721327735   -3.88263436150469   -1.77451200677471
C        -0.55288858235776   -3.16231737417591   -0.94566096222278
H         0.48026771625429   -3.45102655425698   -0.81180781068888
H        -1.01881157270056   -4.74364262509200   -2.30580764147672
H        -4.14659118111066   -2.03152073939805   -1.27296998053874
C        -2.58571370844650   -0.52194991464868    0.43027576938936
N        -1.59466085109019    0.06288113263767    1.13451165526372
C        -1.88703446644680    1.12292092251638    1.88013500833616
C        -3.15261671976290    1.66338394315293    1.98360450016432
C        -4.18627249597350    1.07213843712803    1.26121726511074
C        -3.89486632436561   -0.02425169736689    0.47977743102528
H        -4.68287234454804   -0.49798480697676   -0.08084048874969
H        -3.33010023262813    2.51724520879508    2.61491251985990
H        -1.05602108213265    1.55647967882729    2.41396861674798
Ir        0.42150000000000   -0.81650000000000    0.91330000000000
H         0.87260000000000   -2.23030000000000    1.54050000000000
B         0.48500084089929    0.43549342252092   -0.75757451335434
O         0.12860781309341   -0.03079737310077   -2.01461977991361
C        -0.01265840816819    1.07968931505251   -2.90806006685467
C         0.47137923735061    0.72466976130283   -4.31219348716944
H         1.48736896824352    0.34629958634986   -4.29822167734284
H         0.42144535737103    1.60814545485902   -4.94330220026212
H        -0.17347619601838   -0.04306376351475   -4.73185073502416
C        -1.51578133009992    1.39663837518707   -2.96254697543295
H        -1.72664956562180    2.20476620631067   -3.65501767985311
H        -2.04426115993147    0.50172333100069   -3.28434881897029
H        -1.86741246554613    1.65781592694668   -1.96645222341369
C         0.80739881183967    2.19655691421297   -2.19036167388566
O         0.76007198205020    1.77842023877348   -0.82185794439381
C         2.28475793830632    2.19492619947858   -2.60488159340597
H         2.69284496206775    1.20031667813218   -2.44696694087117
H         2.40751574731201    2.50552441180272   -3.63786000056891
H         2.82730967889193    2.88146727858401   -1.95979837229643
C         0.24716031606223    3.61049843767111   -2.33004621493772
H        -0.75019852745802    3.68829671072765   -1.91044243032693
H         0.89600267377358    4.29645201702727   -1.79204375842567
H         0.22611420639745    3.89451340279982   -3.37844591457355
B         1.54174892238729    0.68517439905629    1.82878520661023
O         2.89952092842968    0.67210713299906    2.00608385755455
C         3.34393671136341    1.95158612541892    2.46166231076001
C         4.51449979204087    1.83745809104615    3.43570047617039
H         4.27268312066933    1.22222518740679    4.29396816724683
H         5.35920974810577    1.38062724793732    2.92829876815554
H         4.79666585855732    2.83105116711860    3.77066292911969
C         3.80018349382367    2.67469356930065    1.18863069412875
H         4.20361721084520    3.66051483322641    1.38781241856663
H         4.56413123299653    2.05662668584014    0.72303918148578
H         2.95717885658339    2.72161645336055    0.50383893087019
C         2.03835165472997    2.54393175231103    3.07571375004373
O         1.01092706539024    1.83406530964098    2.36530262350854
C         1.87628959521472    4.04623407468603    2.88346492920845
H         1.83669231391345    4.29025325994088    1.82775323412024
H         0.95001720811913    4.37093493761302    3.34844865459815
H         2.71020468041063    4.56195164518474    3.34946559484169