      -----------------------------------------------------------      
     |                   =====================                   |     
     |                           x T B                           |     
     |                   =====================                   |     
     |                         S. Grimme                         |     
     |          Mulliken Center for Theoretical Chemistry        |     
     |                    University of Bonn                     |     
      -----------------------------------------------------------      

   * xtb version 6.4.0 (f63f532) compiled by 'knkr256@seskscpg008.prim.scp' on 2021-04-09

   xtb is free software: you can redistribute it and/or modify it under
   the terms of the GNU Lesser General Public License as published by
   the Free Software Foundation, either version 3 of the License, or
   (at your option) any later version.
   
   xtb is distributed in the hope that it will be useful,
   but WITHOUT ANY WARRANTY; without even the implied warranty of
   MERCHANTABILITY or FITNESS FOR A PARTICULAR PURPOSE.  See the
   GNU Lesser General Public License for more details.
   
   Cite this work as:
   * C. Bannwarth, E. Caldeweyher, S. Ehlert, A. Hansen, P. Pracht,
     J. Seibert, S. Spicher, S. Grimme, WIREs Comput. Mol. Sci., 2020, 11,
     e01493. DOI: 10.1002/wcms.1493
   
   for GFN2-xTB:
   * C. Bannwarth, S. Ehlert and S. Grimme., J. Chem. Theory Comput., 2019,
     15, 1652-1671. DOI: 10.1021/acs.jctc.8b01176
   for GFN1-xTB:
   * S. Grimme, C. Bannwarth, P. Shushkov, J. Chem. Theory Comput., 2017,
     13, 1989-2009. DOI: 10.1021/acs.jctc.7b00118
   for GFN0-xTB:
   * P. Pracht, E. Caldeweyher, S. Ehlert, S. Grimme, ChemRxiv, 2019, preprint.
     DOI: 10.26434/chemrxiv.8326202.v1
   for GFN-FF:
   * S. Spicher and S. Grimme, Angew. Chem. Int. Ed., 2020, 59, 15665-15673.
     DOI: 10.1002/anie.202004239
   
   for DFT-D4:
   * E. Caldeweyher, C. Bannwarth and S. Grimme, J. Chem. Phys., 2017,
     147, 034112. DOI: 10.1063/1.4993215
   * E. Caldeweyher, S. Ehlert, A. Hansen, H. Neugebauer, S. Spicher,
     C. Bannwarth and S. Grimme, J. Chem. Phys., 2019, 150, 154122.
     DOI: 10.1063/1.5090222
   * E. Caldeweyher, J.-M. Mewes, S. Ehlert and S. Grimme, Phys. Chem. Chem. Phys.
     2020, 22, 8499-8512. DOI: 10.1039/D0CP00502A
   
   for sTDA-xTB:
   * S. Grimme and C. Bannwarth, J. Chem. Phys., 2016, 145, 054103.
     DOI: 10.1063/1.4959605
   
   in the mass-spec context:
   * V. Asgeirsson, C. Bauer and S. Grimme, Chem. Sci., 2017, 8, 4879.
     DOI: 10.1039/c7sc00601b
   * J. Koopman and S. Grimme, ACS Omega 2019, 4, 12, 15120-15133.
     DOI: 10.1021/acsomega.9b02011
   
   for metadynamics refer to:
   * S. Grimme, J. Chem. Theory Comput., 2019, 155, 2847-2862
     DOI: 10.1021/acs.jctc.9b00143
   
   for SPH calculations refer to:
   * S. Spicher and S. Grimme, J. Chem. Theory Comput., 2021, 17, 1701-1714
     DOI: 10.1021/acs.jctc.0c01306
   
   with help from (in alphabetical order)
   P. Atkinson, C. Bannwarth, F. Bohle, G. Brandenburg, E. Caldeweyher
   M. Checinski, S. Dohm, S. Ehlert, S. Ehrlich, I. Gerasimov, J. Koopman
   C. Lavinge, S. Lehtola, F. März, M. Müller, F. Musil, H. Neugebauer
   J. Pisarek, P. Pracht, J. Seibert, P. Shushkov, S. Spicher, M. Stahn
   T. Strunk, J. Stückrath, T. Rose, and J. Unsleber
   
 * started run on 2021/10/08 at 07:33:10.921     

           -------------------------------------------------
          |                Calculation Setup                |
           -------------------------------------------------

          program call               : xtb xtbopt.xyz --sp --alpb thf -P 6
          hostname                   : seskscpg010.prim.scp
          coordinate file            : xtbopt.xyz
          omp threads                :                     6
          number of atoms            :                   108
          number of electrons        :                   280
          charge                     :                     0
          spin                       :                   0.0
          first test random number   :      0.08658908976245

   ID    Z sym.   atoms
    1    7 N      1, 11
    2    6 C      2-6, 10, 12-15, 23, 24, 28, 32, 34, 38, 44, 45, 49, 53, 55,
                  59, 65, 66, 70, 74, 76, 80, 86-89, 91, 93, 94, 96, 100, 101
    3    1 H      7-9, 16-18, 20, 25-27, 29-31, 35-37, 39-41, 46-48, 50-52,
                  56-58, 60-62, 67-69, 71-73, 77-79, 81-85, 90, 95, 97-99,
                  102-108
    4   77 Ir     19
    5    5 B      21, 42, 63
    6    8 O      22, 33, 43, 54, 64, 75
    7   35 Br     92

molecular fragmentation (1/2 indicates fragments):
111111111111111111111111111111111111111111111111111111111111111111111111
111111111111122222222222222222222222
# atoms in fragment 1/2:    85    23
 fragment masses (1/2) :      730.32      212.11
CMA distance (Bohr)    :   8.792
constraining FC (au)   :  0.0500

           -------------------------------------------------
          |                 G F N 2 - x T B                 |
           -------------------------------------------------

        Reference                      10.1021/acs.jctc.8b01176
      * Hamiltonian:
        H0-scaling (s, p, d)           1.850000    2.230000    2.230000
        zeta-weighting                 0.500000
      * Dispersion:
        s8                             2.700000
        a1                             0.520000
        a2                             5.000000
        s9                             5.000000
      * Repulsion:
        kExp                           1.500000    1.000000
        rExp                           1.000000
      * Coulomb:
        alpha                          2.000000
        third order                    shell-resolved
        anisotropic                    true
        a3                             3.000000
        a5                             4.000000
        cn-shift                       1.200000
        cn-exp                         4.000000
        max-rad                        5.000000

      * Solvation model:               ALPB
        Solvent                        thf
        Parameter file                 internal GFN2-xTB/ALPB
        Dielectric constant                7.6000E+00
        Reference state                gsolv [1 M gas/solution]
        Free energy shift                  5.3248E-03 Eh       3.3414E+00 kcal/mol
        Temperature                        2.9815E+02 K
        Density                            8.8300E-01 kg/L
        Solvent mass                       7.2106E+01 g/mol
        Interaction kernel             P16
        Born radius scaling (c1)           1.7311E+00
        Born radii integrator          GBOBC
        Born offset                        0.0000E+00 a0       0.0000E+00 AA
        H-bond correction              true
        Ion screening                  false
        Surface tension                    1.0000E-05 Eh       1.5569E+01 dyn/cm
        Grid points                               230 per atom
q/qsh data taken from xtbrestart
CAMM data taken from xtbrestart

          ...................................................
          :                      SETUP                      :
          :.................................................:
          :  # basis functions                 273          :
          :  # atomic orbitals                 271          :
          :  # shells                          161          :
          :  # electrons                       280          :
          :  max. iterations                   250          :
          :  Hamiltonian                  GFN2-xTB          :
          :  restarted?                       true          :
          :  GBSA solvation                   true          :
          :  PC potential                    false          :
          :  electronic temp.          300.0000000     K    :
          :  accuracy                    1.0000000          :
          :  -> integral cutoff          0.2500000E+02      :
          :  -> integral neglect         0.1000000E-07      :
          :  -> SCF convergence          0.1000000E-05 Eh   :
          :  -> wf. convergence          0.1000000E-03 e    :
          :  Broyden damping             0.4000000          :
          ...................................................

 iter      E             dE          RMSdq      gap      omega  full diag
   1   -154.6563109 -0.154656E+03  0.404E-05    0.90       0.0  T
   2   -154.6563109  0.176954E-09  0.570E-05    0.90     168.9  T
   3   -154.6563109 -0.197389E-09  0.280E-05    0.90     343.6  T

   *** convergence criteria satisfied after 3 iterations ***

         #    Occupation            Energy/Eh            Energy/eV
      -------------------------------------------------------------
         1        2.0000           -0.8104118             -22.0524
       ...           ...                  ...                  ...
       134        2.0000           -0.3726027             -10.1390
       135        2.0000           -0.3531921              -9.6108
       136        2.0000           -0.3376547              -9.1881
       137        2.0000           -0.3282912              -8.9333
       138        2.0000           -0.3244464              -8.8286
       139        2.0000           -0.3172190              -8.6320
       140        2.0000           -0.3140914              -8.5469 (HOMO)
       141                         -0.2809160              -7.6441 (LUMO)
       142                         -0.2529332              -6.8827
       143                         -0.2504782              -6.8159
       144                         -0.2208832              -6.0105
       145                         -0.2199970              -5.9864
       ...                                ...                  ...
       271                          3.8238688             104.0528
      -------------------------------------------------------------
                  HL-Gap            0.0331754 Eh            0.9027 eV
             Fermi-level           -0.2974863 Eh           -8.0950 eV

 SCC (total)                   0 d,  0 h,  0 min,  0.121 sec
 SCC setup                      ...        0 min,  0.003 sec (  2.225%)
 Dispersion                     ...        0 min,  0.002 sec (  1.647%)
 classical contributions        ...        0 min,  0.000 sec (  0.143%)
 integral evaluation            ...        0 min,  0.033 sec ( 27.047%)
 iterations                     ...        0 min,  0.036 sec ( 29.797%)
 molecular gradient             ...        0 min,  0.047 sec ( 38.541%)
 printout                       ...        0 min,  0.001 sec (  0.553%)

         :::::::::::::::::::::::::::::::::::::::::::::::::::::
         ::                     SUMMARY                     ::
         :::::::::::::::::::::::::::::::::::::::::::::::::::::
         :: total energy            -152.687974523488 Eh    ::
         :: total w/o Gsasa/hb      -152.645419193814 Eh    ::
         :: gradient norm              0.032409388522 Eh/a0 ::
         :: HOMO-LUMO gap              0.902749267828 eV    ::
         ::.................................................::
         :: SCC energy              -154.656310942332 Eh    ::
         :: -> isotropic ES            0.245243206748 Eh    ::
         :: -> anisotropic ES          0.004323699120 Eh    ::
         :: -> anisotropic XC          0.037811684974 Eh    ::
         :: -> dispersion             -0.152481061669 Eh    ::
         :: -> Gsolv                  -0.052544114870 Eh    ::
         ::    -> Gelec               -0.009988785196 Eh    ::
         ::    -> Gsasa               -0.045234098843 Eh    ::
         ::    -> Ghb                 -0.002646046275 Eh    ::
         ::    -> Gshift               0.005324815444 Eh    ::
         :: repulsion energy           1.958822481230 Eh    ::
         :: add. restraining           0.000000000000 Eh    ::
         :: total charge               0.000000001944 e     ::
         :::::::::::::::::::::::::::::::::::::::::::::::::::::

           -------------------------------------------------
          |                Property Printout                |
           -------------------------------------------------

    * Orbital Energies and Occupations

         #    Occupation            Energy/Eh            Energy/eV
      -------------------------------------------------------------
         1        2.0000           -0.8104118             -22.0524
       ...           ...                  ...                  ...
       128        2.0000           -0.3952876             -10.7563
       129        2.0000           -0.3925061             -10.6806
       130        2.0000           -0.3906487             -10.6301
       131        2.0000           -0.3884169             -10.5694
       132        2.0000           -0.3841458             -10.4531
       133        2.0000           -0.3798439             -10.3361
       134        2.0000           -0.3726027             -10.1390
       135        2.0000           -0.3531921              -9.6108
       136        2.0000           -0.3376547              -9.1881
       137        2.0000           -0.3282912              -8.9333
       138        2.0000           -0.3244464              -8.8286
       139        2.0000           -0.3172190              -8.6320
       140        2.0000           -0.3140914              -8.5469 (HOMO)
       141                         -0.2809160              -7.6441 (LUMO)
       142                         -0.2529332              -6.8827
       143                         -0.2504782              -6.8159
       144                         -0.2208832              -6.0105
       145                         -0.2199970              -5.9864
       146                         -0.2090535              -5.6886
       147                         -0.1982257              -5.3940
       148                         -0.1776653              -4.8345
       149                         -0.1517835              -4.1302
       150                         -0.1315298              -3.5791
       151                         -0.1253427              -3.4107
       ...                                ...                  ...
       271                          3.8238688             104.0528
      -------------------------------------------------------------
                  HL-Gap            0.0331754 Eh            0.9027 eV
             Fermi-level           -0.2974863 Eh           -8.0950 eV

     #   Z          covCN         q      C6AA      α(0)
     1   7 N        2.554    -0.130    23.840     7.251
     2   6 C        2.955     0.076    26.308     8.413
     3   6 C        2.918    -0.044    29.081     8.843
     4   6 C        2.924    -0.022    28.548     8.762
     5   6 C        2.915    -0.044    29.086     8.844
     6   6 C        2.892     0.051    26.861     8.497
     7   1 H        0.926     0.050     2.317     2.380
     8   1 H        0.926     0.055     2.252     2.347
     9   1 H        0.926     0.045     2.378     2.412
    10   6 C        2.952     0.072    26.389     8.426
    11   7 N        2.552    -0.138    24.014     7.278
    12   6 C        2.889     0.043    27.026     8.523
    13   6 C        2.915    -0.045    29.125     8.850
    14   6 C        2.922    -0.025    28.634     8.775
    15   6 C        2.918    -0.045    29.127     8.850
    16   1 H        0.926     0.044     2.395     2.420
    17   1 H        0.926     0.049     2.327     2.386
    18   1 H        0.926     0.072     2.068     2.249
    19  77 Ir       5.945    -0.141   386.436    36.352
    20   1 H        0.977     0.079     1.989     2.204
    21   5 B        2.635     0.409    15.930     6.738
    22   8 O        1.638    -0.410    21.062     6.195
    23   6 C        3.837     0.131    18.434     6.108
    24   6 C        3.755    -0.121    22.873     6.819
    25   1 H        0.925     0.054     2.273     2.357
    26   1 H        0.925     0.045     2.386     2.416
    27   1 H        0.925     0.051     2.303     2.373
    28   6 C        3.754    -0.107    22.607     6.780
    29   1 H        0.925     0.047     2.352     2.398
    30   1 H        0.925     0.041     2.434     2.440
    31   1 H        0.925     0.025     2.657     2.549
    32   6 C        3.844     0.132    18.409     6.103
    33   8 O        1.637    -0.412    21.089     6.199
    34   6 C        3.755    -0.120    22.856     6.817
    35   1 H        0.925     0.050     2.316     2.380
    36   1 H        0.925     0.046     2.367     2.406
    37   1 H        0.925     0.050     2.320     2.382
    38   6 C        3.754    -0.118    22.824     6.812
    39   1 H        0.925     0.044     2.391     2.418
    40   1 H        0.925     0.053     2.282     2.362
    41   1 H        0.925     0.046     2.375     2.410
    42   5 B        2.611     0.413    16.009     6.779
    43   8 O        1.637    -0.381    20.494     6.111
    44   6 C        3.828     0.130    18.452     6.112
    45   6 C        3.755    -0.130    23.056     6.847
    46   1 H        0.925     0.064     2.157     2.297
    47   1 H        0.925     0.056     2.250     2.346
    48   1 H        0.925     0.052     2.292     2.367
    49   6 C        3.755    -0.120    22.846     6.815
    50   1 H        0.925     0.048     2.343     2.394
    51   1 H        0.925     0.048     2.348     2.396
    52   1 H        0.925     0.049     2.338     2.391
    53   6 C        3.823     0.129    18.465     6.115
    54   8 O        1.637    -0.392    20.703     6.142
    55   6 C        3.755    -0.121    22.873     6.819
    56   1 H        0.925     0.046     2.366     2.405
    57   1 H        0.925     0.051     2.307     2.375
    58   1 H        0.925     0.049     2.338     2.391
    59   6 C        3.755    -0.125    22.960     6.832
    60   1 H        0.925     0.057     2.239     2.340
    61   1 H        0.925     0.052     2.300     2.372
    62   1 H        0.925     0.050     2.316     2.380
    63   5 B        2.631     0.409    15.948     6.746
    64   8 O        1.638    -0.372    20.319     6.085
    65   6 C        3.836     0.127    18.501     6.119
    66   6 C        3.755    -0.133    23.106     6.854
    67   1 H        0.925     0.056     2.240     2.341
    68   1 H        0.925     0.063     2.159     2.298
    69   1 H        0.925     0.052     2.293     2.368
    70   6 C        3.755    -0.130    23.059     6.847
    71   1 H        0.925     0.065     2.136     2.286
    72   1 H        0.925     0.051     2.305     2.374
    73   1 H        0.925     0.052     2.299     2.371
    74   6 C        3.832     0.128    18.486     6.117
    75   8 O        1.637    -0.387    20.602     6.127
    76   6 C        3.755    -0.124    22.938     6.829
    77   1 H        0.925     0.052     2.296     2.369
    78   1 H        0.925     0.051     2.302     2.373
    79   1 H        0.925     0.056     2.241     2.341
    80   6 C        3.755    -0.121    22.882     6.821
    81   1 H        0.925     0.038     2.471     2.458
    82   1 H        0.925     0.050     2.325     2.384
    83   1 H        0.925     0.055     2.257     2.350
    84   1 H        0.926     0.052     2.289     2.366
    85   1 H        0.926     0.048     2.342     2.393
    86   6 C        2.882    -0.033    28.814     8.800
    87   6 C        2.945    -0.039    28.958     8.826
    88   6 C        2.923     0.065    26.533     8.447
    89   6 C        2.965     0.007    27.861     8.658
    90   1 H        0.925     0.030     2.592     2.518
    91   6 C        3.018    -0.044    29.076     8.845
    92  35 Br       1.084    -0.176   189.934    22.221
    93   6 C        3.811    -0.067    21.781     6.643
    94   6 C        2.926    -0.049    29.219     8.865
    95   1 H        0.926     0.060     2.194     2.316
    96   6 C        3.850    -0.004    20.623     6.459
    97   1 H        0.924     0.034     2.531     2.488
    98   1 H        0.924     0.043     2.407     2.426
    99   1 H        0.926     0.043     2.409     2.427
   100   6 C        3.755    -0.111    22.675     6.790
   101   6 C        3.756    -0.112    22.696     6.793
   102   1 H        0.924     0.023     2.682     2.561
   103   1 H        0.925     0.040     2.445     2.445
   104   1 H        0.925     0.035     2.516     2.481
   105   1 H        0.925     0.038     2.481     2.463
   106   1 H        0.925     0.040     2.445     2.445
   107   1 H        0.925     0.040     2.451     2.448
   108   1 H        0.925     0.033     2.547     2.496

 Mol. C6AA /au·bohr⁶  :     126441.039671
 Mol. C8AA /au·bohr⁸  :    3468586.459663
 Mol. α(0) /au        :        551.028427


Wiberg/Mayer (AO) data.
largest (>0.10) Wiberg bond orders for each atom

 ---------------------------------------------------------------------------
     #   Z sym  total        # sym  WBO       # sym  WBO       # sym  WBO
 ---------------------------------------------------------------------------
     1   7 N    3.392 --     6 C    1.389     2 C    1.310    19 Ir   0.432
     2   6 C    3.979 --     3 C    1.345     1 N    1.310    10 C    1.096
     3   6 C    3.988 --     4 C    1.486     2 C    1.345     9 H    0.962
                             6 C    0.106
     4   6 C    3.985 --     3 C    1.486     5 C    1.380    84 H    0.969
     5   6 C    3.979 --     6 C    1.461     4 C    1.380     8 H    0.969
     6   6 C    3.978 --     5 C    1.461     1 N    1.389     7 H    0.957
                             3 C    0.106
     7   1 H    0.997 --     6 C    0.957
     8   1 H    0.996 --     5 C    0.969
     9   1 H    0.997 --     3 C    0.962
    10   6 C    3.978 --    15 C    1.350    11 N    1.300     2 C    1.096
    11   7 N    3.387 --    12 C    1.380    10 C    1.300    19 Ir   0.412
    12   6 C    3.974 --    13 C    1.463    11 N    1.380    18 H    0.948
                            15 C    0.105
    13   6 C    3.982 --    12 C    1.463    14 C    1.379    17 H    0.969
    14   6 C    3.982 --    15 C    1.481    13 C    1.379    85 H    0.969
    15   6 C    3.989 --    14 C    1.481    10 C    1.350    16 H    0.962
                            12 C    0.105
    16   1 H    0.998 --    15 C    0.962
    17   1 H    0.997 --    13 C    0.969
    18   1 H    0.994 --    12 C    0.948
    19  77 Ir   5.149 --    63 B    0.864    42 B    0.850    21 B    0.705
                            86 C    0.599    20 H    0.546     1 N    0.432
                            11 N    0.412
    20   1 H    0.991 --    19 Ir   0.546    86 C    0.340
    21   5 B    3.267 --    33 O    1.103    22 O    1.096    19 Ir   0.705
    22   8 O    2.190 --    21 B    1.096    23 C    0.941
    23   6 C    3.943 --    24 C    0.997    28 C    0.990    32 C    0.942
                            22 O    0.941
    24   6 C    3.994 --    23 C    0.997    26 H    0.983    27 H    0.983
                            25 H    0.983
    25   1 H    0.997 --    24 C    0.983
    26   1 H    0.997 --    24 C    0.983
    27   1 H    0.997 --    24 C    0.983
    28   6 C    3.997 --    23 C    0.990    31 H    0.985    30 H    0.984
                            29 H    0.984
    29   1 H    0.997 --    28 C    0.984
    30   1 H    0.998 --    28 C    0.984
    31   1 H    0.999 --    28 C    0.985
    32   6 C    3.940 --    38 C    0.997    34 C    0.991    23 C    0.942
                            33 O    0.938
    33   8 O    2.190 --    21 B    1.103    32 C    0.938
    34   6 C    3.994 --    32 C    0.991    36 H    0.984    35 H    0.982
                            37 H    0.981
    35   1 H    0.997 --    34 C    0.982
    36   1 H    0.997 --    34 C    0.984
    37   1 H    0.997 --    34 C    0.981
    38   6 C    3.994 --    32 C    0.997    41 H    0.984    39 H    0.983
                            40 H    0.982
    39   1 H    0.998 --    38 C    0.983
    40   1 H    0.997 --    38 C    0.982
    41   1 H    0.997 --    38 C    0.984
    42   5 B    3.337 --    43 O    1.133    54 O    1.099    19 Ir   0.850
    43   8 O    2.236 --    42 B    1.133    44 C    0.935
    44   6 C    3.934 --    45 C    0.995    49 C    0.992    53 C    0.936
                            43 O    0.935
    45   6 C    3.991 --    44 C    0.995    48 H    0.982    47 H    0.981
                            46 H    0.979
    46   1 H    0.996 --    45 C    0.979
    47   1 H    0.997 --    45 C    0.981
    48   1 H    0.996 --    45 C    0.982
    49   6 C    3.994 --    44 C    0.992    50 H    0.983    51 H    0.983
                            52 H    0.980
    50   1 H    0.997 --    49 C    0.983
    51   1 H    0.997 --    49 C    0.983
    52   1 H    0.998 --    49 C    0.980
    53   6 C    3.935 --    55 C    0.994    59 C    0.993    44 C    0.936
                            54 O    0.933
    54   8 O    2.220 --    42 B    1.099    53 C    0.933
    55   6 C    3.994 --    53 C    0.994    57 H    0.983    56 H    0.983
                            58 H    0.983
    56   1 H    0.998 --    55 C    0.983
    57   1 H    0.997 --    55 C    0.983
    58   1 H    0.996 --    55 C    0.983
    59   6 C    3.993 --    53 C    0.993    62 H    0.983    61 H    0.983
                            60 H    0.978
    60   1 H    0.997 --    59 C    0.978
    61   1 H    0.996 --    59 C    0.983
    62   1 H    0.997 --    59 C    0.983
    63   5 B    3.363 --    64 O    1.122    75 O    1.111    19 Ir   0.864
    64   8 O    2.238 --    63 B    1.122    65 C    0.933
    65   6 C    3.935 --    70 C    0.997    66 C    0.992    74 C    0.939
                            64 O    0.933
    66   6 C    3.991 --    65 C    0.992    69 H    0.983    68 H    0.980
                            67 H    0.979
    67   1 H    0.997 --    66 C    0.979
    68   1 H    0.996 --    66 C    0.980
    69   1 H    0.996 --    66 C    0.983
    70   6 C    3.991 --    65 C    0.997    72 H    0.983    73 H    0.982
                            71 H    0.981
    71   1 H    0.995 --    70 C    0.981
    72   1 H    0.996 --    70 C    0.983
    73   1 H    0.997 --    70 C    0.982
    74   6 C    3.934 --    76 C    0.996    80 C    0.991    65 C    0.939
                            75 O    0.934
    75   8 O    2.227 --    63 B    1.111    74 C    0.934
    76   6 C    3.992 --    74 C    0.996    77 H    0.983    78 H    0.983
                            79 H    0.982
    77   1 H    0.996 --    76 C    0.983
    78   1 H    0.997 --    76 C    0.983
    79   1 H    0.997 --    76 C    0.982
    80   6 C    3.995 --    74 C    0.991    81 H    0.984    82 H    0.983
                            83 H    0.983
    81   1 H    0.999 --    80 C    0.984
    82   1 H    0.997 --    80 C    0.983
    83   1 H    0.996 --    80 C    0.983
    84   1 H    0.996 --     4 C    0.969
    85   1 H    0.997 --    14 C    0.969
    86   6 C    3.949 --    87 C    1.376    88 C    1.371    19 Ir   0.599
                            20 H    0.340
    87   6 C    3.989 --    89 C    1.413    86 C    1.376    90 H    0.957
                            91 C    0.104
    88   6 C    3.928 --    91 C    1.413    86 C    1.371    92 Br   0.950
    89   6 C    3.986 --    87 C    1.413    94 C    1.397    93 C    1.012
    90   1 H    0.999 --    87 C    0.957
    91   6 C    3.984 --    94 C    1.437    88 C    1.413    95 H    0.965
                            87 C    0.104
    92  35 Br   1.121 --    88 C    0.950
    93   6 C    3.994 --    89 C    1.012    96 C    0.978    98 H    0.974
                            97 H    0.968
    94   6 C    3.985 --    91 C    1.437    89 C    1.397    99 H    0.966
    95   1 H    0.994 --    91 C    0.965
    96   6 C    3.995 --   100 C    1.011   101 C    1.008    93 C    0.978
                           102 H    0.969
    97   1 H    0.998 --    93 C    0.968
    98   1 H    0.997 --    93 C    0.974
    99   1 H    0.997 --    94 C    0.966
   100   6 C    3.996 --    96 C    1.011   105 H    0.986   103 H    0.986
                           104 H    0.985
   101   6 C    3.995 --    96 C    1.008   108 H    0.987   106 H    0.987
                           107 H    0.986
   102   1 H    0.999 --    96 C    0.969
   103   1 H    0.998 --   100 C    0.986
   104   1 H    0.999 --   100 C    0.985
   105   1 H    0.998 --   100 C    0.986
   106   1 H    0.998 --   101 C    0.987
   107   1 H    0.998 --   101 C    0.986
   108   1 H    0.999 --   101 C    0.987
 ---------------------------------------------------------------------------

Topologies differ in total number of bonds
Writing topology from bond orders to xtbtopo.mol

molecular dipole:
                 x           y           z       tot (Debye)
 q only:       -0.556       0.225      -0.643
   full:       -2.820       0.716      -1.842       8.753
molecular quadrupole (traceless):
                xx          xy          yy          xz          yz          zz
 q only:        7.785       6.296      -1.335      -7.374       8.625      -6.450
  q+dip:        2.820      12.401       5.343     -21.059      17.691      -8.163
   full:        1.706      13.466       7.715     -23.366      14.708      -9.421


           -------------------------------------------------
          | TOTAL ENERGY             -152.687974523488 Eh   |
          | GRADIENT NORM               0.032409388522 Eh/α |
          | HOMO-LUMO GAP               0.902749267828 eV   |
           -------------------------------------------------

------------------------------------------------------------------------
 * finished run on 2021/10/08 at 07:33:11.091     
------------------------------------------------------------------------
 total:
 * wall-time:     0 d,  0 h,  0 min,  0.170 sec
 *  cpu-time:     0 d,  0 h,  0 min,  0.979 sec
 * ratio c/w:     5.744 speedup
 SCF:
 * wall-time:     0 d,  0 h,  0 min,  0.123 sec
 *  cpu-time:     0 d,  0 h,  0 min,  0.731 sec
 * ratio c/w:     5.959 speedup

