108
 energy: -152.660019525005 gnorm: 0.076287411968 xtb: 6.4.0 (f63f532)
N        -0.96510000000000   -2.11530000000000   -0.24090000000000
C        -2.24700000000000   -1.69840000000000   -0.36220000000000
C        -3.14040000000000   -2.36820000000000   -1.21200000000000
C        -2.70220000000000   -3.47560000000000   -1.93050000000000
C        -1.37780000000000   -3.89880000000000   -1.78760000000000
C        -0.54290000000000   -3.18670000000000   -0.93510000000000
H         0.49810000000000   -3.45630000000000   -0.78940000000000
H        -0.99570000000000   -4.76030000000000   -2.32770000000000
H        -4.16500000000000   -2.02890000000000   -1.31830000000000
C        -2.62130000000000   -0.50950000000000    0.44100000000000
N        -1.62600000000000    0.07330000000000    1.16020000000000
C        -1.89680000000000    1.15240000000000    1.91690000000000
C        -3.17230000000000    1.70330000000000    1.99650000000000
C        -4.20510000000000    1.11740000000000    1.26270000000000
C        -3.92610000000000    0.00250000000000    0.47820000000000
H        -4.71960000000000   -0.46420000000000   -0.09520000000000
H        -3.34630000000000    2.57510000000000    2.62070000000000
H        -1.04450000000000    1.57420000000000    2.43690000000000
Ir        0.42150000000000   -0.81650000000000    0.91330000000000
H         0.87260000000000   -2.23030000000000    1.54050000000000
B         0.50670000000000    0.41560000000000   -0.81540000000000
O         0.19500000000000   -0.04700000000000   -2.09150000000000
C         0.00650000000000    1.10040000000000   -2.95430000000000
C         0.49020000000000    0.74740000000000   -4.35780000000000
H         1.51610000000000    0.37380000000000   -4.33700000000000
H         0.44730000000000    1.62240000000000   -5.01670000000000
H        -0.14740000000000   -0.03390000000000   -4.78430000000000
C        -1.50120000000000    1.39560000000000   -2.96670000000000
H        -1.75370000000000    2.21460000000000   -3.64850000000000
H        -2.03200000000000    0.49450000000000   -3.28930000000000
H        -1.85170000000000    1.65210000000000   -1.96220000000000
C         0.84230000000000    2.20670000000000   -2.22040000000000
O         0.75200000000000    1.78260000000000   -0.83690000000000
C         2.32930000000000    2.18620000000000   -2.59900000000000
H         2.74130000000000    1.18500000000000   -2.45750000000000
H         2.48870000000000    2.51300000000000   -3.63180000000000
H         2.87200000000000    2.86270000000000   -1.93200000000000
C         0.28440000000000    3.62290000000000   -2.33660000000000
H        -0.72650000000000    3.69040000000000   -1.92910000000000
H         0.92130000000000    4.31480000000000   -1.77610000000000
H         0.26430000000001    3.94810000000000   -3.38320000000000
B         1.56300000000000    0.60960000000000    1.84840000000000
O         2.92780000000000    0.55230000000000    2.15020000000000
C         3.36330000000000    1.88660000000000    2.50260000000000
C         4.53140000000000    1.78590000000000    3.47740000000000
H         4.27910000000000    1.16090000000000    4.33690000000000
H         5.39390000000000    1.33790000000000    2.97340000000000
H         4.82390000000000    2.77870000000000    3.83820000000000
C         3.79700000000000    2.56850000000000    1.19670000000000
H         4.20020000000000    3.57090000000000    1.37680000000000
H         4.56740000000000    1.95560000000000    0.72110000000000
H         2.95240000000000    2.63260000000000    0.50540000000000
C         2.05040000000000    2.50090000000000    3.09320000000000
O         1.03750000000000    1.81620000000000    2.31910000000000
C         1.89100000000000    4.00450000000000    2.88650000000000
H         1.87290000000000    4.25440000000000    1.82410000000000
H         0.94940000000000    4.34260000000000    3.33170000000000
H         2.71080000000000    4.55150000000000    3.36630000000000
C         1.82470000000000    2.13200000000000    4.56520000000000
H         1.92610000000000    1.05330000000000    4.71320000000000
H         2.52610000000000    2.65280000000000    5.22540000000000
H         0.80630000000000    2.41580000000000    4.84900000000000
B         2.27820000000000   -1.33090000000000    0.17410000000000
O         2.89460000000000   -2.57740000000000    0.38450000000000
C         4.26930000000000   -2.48200000000001   -0.07210000000000
C         5.10900000000000   -2.05380000000000    1.14010000000000
H         4.76350000000000   -1.08740000000000    1.51750000000000
H         4.98050000000000   -2.79470000000000    1.93590000000000
H         6.17420000000000   -1.99290000000000    0.89300000000000
C         4.71950000000000   -3.84660000000000   -0.58470000000000
H         4.75280000000000   -4.56130000000000    0.24420000000000
H         5.72330000000000   -3.78370000000000   -1.02010000000000
H         4.03500000000000   -4.23600000000000   -1.34170000000000
C         4.16440000000000   -1.36220000000000   -1.16300000000000
O         3.08520000000000   -0.55030000000000   -0.65400000000000
C         5.40720000000000   -0.48870000000000   -1.31550000000000
H         6.27320000000000   -1.09010000000000   -1.61530000000000
H         5.23300000000000    0.26930000000000   -2.08590000000000
H         5.64270000000000    0.02650000000000   -0.38240000000000
C         3.71800000000000   -1.89829999999999   -2.53110000000000
H         2.82530000000000   -2.52160000000000   -2.42740000000000
H         3.46090000000000   -1.05250000000000   -3.17550000000000
H         4.50570000000000   -2.48290000000000   -3.01790000000000
H        -3.38500000000000   -4.00130000000000   -2.59310000000001
H        -5.21400000000000    1.52080000000000    1.29960000000000
C         0.23589999999999   -1.68140000000000    2.96030000000000
C        -1.07010911961338   -1.97706680465024    3.38061133217591
C         1.20971411574035   -2.01014834168602    3.91199932320341
C        -1.39199153649284   -2.49360136616233    4.63611299943710
H        -1.89814606259563   -1.81944324395655    2.69933012962829
C         0.93653466265675   -2.56173752673400    5.15635399230136
Br        3.07795431206654   -1.86491530052101    3.63222946320739
C        -2.80229610042678   -2.77833845823411    5.08024268274793
C        -0.36942812642590   -2.80820578580951    5.52626947358598
H         1.75692879408117   -2.83064158068852    5.80854385711550
C        -3.44021023503992   -4.04567957523703    4.47245021848082
H        -3.44100015525816   -1.91704317340203    4.86237881506925
H        -2.77444001746174   -2.90050243937696    6.16764537761670
H        -0.58116603361545   -3.26443901786656    6.48445823276024
C        -2.41055496485556   -5.10744564620501    4.08796999704933
C        -4.43300499694188   -4.62998601368962    5.48001567748569
H        -3.98402869877578   -3.76111011692211    3.56451787767307
H        -1.81800460410140   -5.40684628479819    4.95296792649200
H        -1.73134117517771   -4.73306113783183    3.32228951299750
H        -2.91859292348709   -5.98950918936925    3.69544772006815
H        -3.89498656338872   -5.03498396153737    6.33849203988177
H        -5.01454478271702   -5.43552994973479    5.03096687022602
H        -5.12083634626676   -3.86241222260353    5.83640990211636
108
 energy: -152.668137068160 gnorm: 0.046621391442 xtb: 6.4.0 (f63f532)
N        -0.96116121463391   -2.09769058349128   -0.25361960910427
C        -2.23901089453000   -1.68661711732857   -0.36784459061707
C        -3.13430497326362   -2.36106789060682   -1.20711018543462
C        -2.70391317083069   -3.46345950094394   -1.92155380893074
C        -1.38383881659876   -3.88200333115007   -1.78255546807721
C        -0.55349603596276   -3.16626840583728   -0.94198167373637
H         0.48028987517980   -3.44692994103711   -0.79205670492357
H        -1.00720557033689   -4.74247472024382   -2.31704308600659
H        -4.15490625761834   -2.02581337885185   -1.31147916334584
C        -2.61015092244013   -0.50503078677361    0.42624149214915
N        -1.61671422238809    0.08180673061320    1.13092738036206
C        -1.89683883786293    1.14721937701998    1.88531941373175
C        -3.16552953965643    1.69101167594729    1.98035230332157
C        -4.19656335795311    1.10606239094354    1.25372622826837
C        -3.91482433198709    0.00043631878011    0.47192899209373
H        -4.70708696518999   -0.46606005262418   -0.09326604085423
H        -3.34111359326532    2.55168629770956    2.61050878344558
H        -1.05493127122760    1.56259199766771    2.41895443797148
Ir        0.42150000000000   -0.81650000000000    0.91330000000000
H         0.87260000000000   -2.23030000000000    1.54050000000000
B         0.49591110527096    0.42070949504046   -0.79252812178688
O         0.17606727383985   -0.03706333843799   -2.06413500547212
C         0.01110702920314    1.09592426578052   -2.94353844047219
C         0.48994764968138    0.74727484665368   -4.34881493361824
H         1.50911958538431    0.37084395133367   -4.32796768984727
H         0.44504090005767    1.62300916593382   -4.99691866636602
H        -0.14864195629533   -0.02858690006891   -4.76993210351300
C        -1.49329012000139    1.39848836409043   -2.96936668623996
H        -1.73195840154103    2.21174681418810   -3.65305912837581
H        -2.02385417847097    0.50174120880693   -3.28989265167354
H        -1.84053604679097    1.65367750404139   -1.96783414380229
C         0.83292601632604    2.20561710315000   -2.21184045461220
O         0.75617130876383    1.77734404054556   -0.83488420729149
C         2.31560554748646    2.19021937129799   -2.59935661476296
H         2.72125527778725    1.19139994766873   -2.45059437686203
H         2.46727097071543    2.51229216861078   -3.62888708091357
H         2.85805450553763    2.86479707497373   -1.93781384822206
C         0.28119255614882    3.62190631732306   -2.33844054579914
H        -0.72248360417295    3.69149376383614   -1.92687620284288
H         0.92060907010040    4.30587632263132   -1.78173611988652
H         0.26398799690779    3.93482519850142   -3.38256417341686
B         1.55837866879102    0.62696138814699    1.85133039633493
O         2.92040641619700    0.58410719545890    2.11700103467119
C         3.36172969753886    1.89798256682479    2.50514932345611
C         4.53057933391640    1.79143263040787    3.47670187199304
H         4.27946860919218    1.15858008797319    4.32362500703779
H         5.38409580265282    1.34426100638180    2.96978455043546
H         4.81588418465036    2.77979799577513    3.83614486803539
C         3.79913274769608    2.58204035318756    1.20662821458130
H         4.20259493250360    3.57621606813527    1.39138890693572
H         4.56265606633558    1.96693827460657    0.73285216752505
H         2.95176720704690    2.63479635547381    0.52398877256988
C         2.05046816701862    2.50996750698518    3.08893018058296
O         1.03365761455994    1.81644315871043    2.33734694378318
C         1.89196708598329    4.01139158550245    2.88999332412087
H         1.86743533566665    4.25466295417186    1.83146283519226
H         0.95470928949934    4.34051623095414    3.33707870792652
H         2.71376431054810    4.54530930004305    3.36621501020567
C         1.83151700897946    2.14180786617795    4.56084270058922
H         1.93871500715770    1.06696221345320    4.70078321969718
H         2.53304520786097    2.66162858264621    5.21013315970497
H         0.81657962491385    2.41735529231508    4.84806604376390
B         2.27820000000001   -1.33090000000004    0.17409999999998
O         2.90537043548286   -2.55944865128862    0.38947479884321
C         4.26901642322419   -2.48382285230507   -0.08837368020173
C         5.14113156084749   -2.06100778550763    1.09635617396235
H         4.79334738570961   -1.10275543434080    1.47779207037380
H         5.02578977924698   -2.79695625880179    1.88956613791582
H         6.19436201372695   -1.99988858493788    0.83343987904160
C         4.71808342188315   -3.84821874249117   -0.59470757635860
H         4.74982098477365   -4.54773929174267    0.23956652354080
H         5.71557243159945   -3.77763875072869   -1.02694028194620
H         4.03080813772008   -4.23792403458458   -1.34092053316196
C         4.16328756661276   -1.35817085322395   -1.16323382790935
O         3.07063021260023   -0.56243828040194   -0.66391529896181
C         5.40722004482618   -0.49059178084258   -1.31815855759513
H         6.26303672759387   -1.09705355737714   -1.61320590523495
H         5.23067779162170    0.26196291085913   -2.08556646366114
H         5.63535770828635    0.02092588321297   -0.38741324525226
C         3.72556346573830   -1.89776529832190   -2.53038288267582
H         2.83447608270585   -2.51477223730974   -2.42104135798127
H         3.46835162247727   -1.05668381260426   -3.17288394757058
H         4.51638964435788   -2.47507227015257   -3.00639754421147
H        -3.38312229204360   -3.98864067067012   -2.57936964681903
H        -5.20132000245619    1.50505068637814    1.29689914528235
C         0.23590000000004   -1.68139999999998    2.96029999999995
C        -1.07386055723702   -1.97621234858012    3.37823161355088
C         1.20412948727470   -2.00214432296978    3.92350167536610
C        -1.39933874409171   -2.48743689403914    4.63334444286260
H        -1.89806232652403   -1.82314221310367    2.69418518098186
C         0.92129370522720   -2.54705428692501    5.16713996683414
Br        3.07511449787801   -1.84802674330031    3.65686995019234
C        -2.80931485273576   -2.77414627341289    5.07156068752623
C        -0.38214303735052   -2.79427849816220    5.52741616317526
H         1.73659489256335   -2.81017991302270    5.82508434524409
C        -3.44347446140347   -4.04643111991756    4.46667966245947
H        -3.44925098324800   -1.91739077737851    4.84817602362877
H        -2.78726308034096   -2.89190370806950    6.15802991304987
H        -0.59755996009297   -3.24588202443083    6.48445079381405
C        -2.40990665258173   -5.10623827396972    4.09036059707399
C        -4.43884906880879   -4.62948903215332    5.47115315142984
H        -3.98426097201795   -3.76679191207402    3.55589658119303
H        -1.82127526616970   -5.40022150724346    4.95708950314965
H        -1.72974020670156   -4.73322416543671    3.32763687667833
H        -2.91279074410401   -5.98951788693871    3.69958541680671
H        -3.90488075729860   -5.02991307673844    6.33205496170366
H        -5.01527109639448   -5.43642813891420    5.02329613345990
H        -5.12938350224720   -3.86448152612298    5.82154378660808
108
 energy: -152.671172525487 gnorm: 0.036991446757 xtb: 6.4.0 (f63f532)
N        -0.95289200202911   -2.08612597897315   -0.26385923128100
C        -2.22743575142905   -1.67437620140258   -0.37623069108275
C        -3.12800668025869   -2.34948536594053   -1.20830295353014
C        -2.70690433123005   -3.45138046583998   -1.91986153325407
C        -1.38753846064084   -3.86996782896065   -1.78409930527904
C        -0.55796314034133   -3.15351839230490   -0.94939511109354
H         0.47392517608161   -3.43926718908729   -0.80627242768433
H        -1.01667878186489   -4.73080580988807   -2.31495897521179
H        -4.14744149741042   -2.01637309582395   -1.30434436951949
C        -2.59548834529531   -0.50031880465664    0.41102554750034
N        -1.60507433676015    0.08472623602749    1.11415994620984
C        -1.89262397113110    1.14321469968011    1.86405882925600
C        -3.15771378955435    1.68433679490730    1.96567348928145
C        -4.18879652471324    1.09823233592498    1.24100946383041
C        -3.90178887436648    0.00029903346523    0.45866282887752
H        -4.69225944562788   -0.47099772245476   -0.10007410327697
H        -3.33543900585488    2.53649733072542    2.60088630926678
H        -1.05661171530242    1.56538203502255    2.39783637346546
Ir        0.42150000000000   -0.81650000000001    0.91330000000000
H         0.87260000000000   -2.23030000000000    1.54050000000000
B         0.49747365285471    0.42852869989576   -0.77135255629788
O         0.15662501956251   -0.02879954835910   -2.03548974611171
C         0.00795070519794    1.09209805377012   -2.92457746490365
C         0.49116129095605    0.74038408585411   -4.32787338598287
H         1.50645832544735    0.36062083066791   -4.30869037617565
H         0.44576441784809    1.61990439084181   -4.96472062597524
H        -0.15119653278396   -0.02887100097200   -4.74806972906564
C        -1.49456042701004    1.40438922128220   -2.96957007421167
H        -1.71433938520564    2.21415648518427   -3.65820703731902
H        -2.02469839775638    0.51052372350098   -3.29133093714104
H        -1.84379684869241    1.66246666387564   -1.97192886238640
C         0.82607288236654    2.20347862020715   -2.19850362978051
O         0.76128808559905    1.77796186241183   -0.82689152683941
C         2.30594394360240    2.19414783450988   -2.59667575934311
H         2.70913290478754    1.19716476732027   -2.44174217643829
H         2.44401560752072    2.50984739295349   -3.62656085405852
H         2.84811206345411    2.87264698968358   -1.94296344456173
C         0.27270424348465    3.61864979125156   -2.33376011009416
H        -0.72674722167593    3.69453555101151   -1.91923870449902
H         0.91735245751395    4.30034567744876   -1.78596058681324
H         0.25707887759888    3.91498886921416   -3.37894859603530
B         1.55691546405902    0.64125162494126    1.85469022363662
O         2.91383250134301    0.60617503730051    2.08963226037130
C         3.35716328568857    1.90613019678539    2.50063065373868
C         4.52337447504234    1.79321296127020    3.47517657693199
H         4.27520139679285    1.15175208238455    4.31306621656519
H         5.37297206422893    1.35209734418176    2.96309125183927
H         4.80038948658927    2.77921172689417    3.83596633804988
C         3.80298919885819    2.60776323572296    1.21457791787423
H         4.20551678672084    3.59674472802300    1.40705945321959
H         4.56416311423682    1.99286950527507    0.74210496939638
H         2.95548613976371    2.65578182497278    0.53524015084736
C         2.04960154460796    2.51645437052676    3.08848859264859
O         1.03114131315303    1.81511802195220    2.35469380339183
C         1.89105773217349    4.01781980518831    2.89125117444295
H         1.85869104263951    4.26018834908559    1.83519974107889
H         0.95940249278499    4.34306344554557    3.34526249491983
H         2.71715259426266    4.54113841745564    3.36279621762927
C         1.84484933510629    2.15411712626058    4.56457704849690
H         1.95968455157722    1.08145540694023    4.69816532258432
H         2.54831784045166    2.67798306946847    5.20226982252171
H         0.83138246855729    2.42200397885773    4.85500120637660
B         2.27820000000002   -1.33090000000009    0.17409999999996
O         2.91688854854750   -2.54098370432819    0.40462596485655
C         4.26686118125910   -2.47992112866869   -0.09889628540231
C         5.16934178106671   -2.06677888743123    1.06585610560540
H         4.83165823965369   -1.11037194039641    1.45371873490980
H         5.07232939914361   -2.79907202287055    1.86146807009810
H         6.21009308161216   -2.01006557173500    0.76728517283115
C         4.70440597304923   -3.84706039547373   -0.61009441408223
H         4.73916102589433   -4.53608054425239    0.22857418379492
H         5.69705414827157   -3.77200988680197   -1.04279569037218
H         4.01463348872166   -4.24020523324800   -1.34822340209735
C         4.15513599954211   -1.35670332268766   -1.17076975252576
O         3.05292667805566   -0.57353549612250   -0.67888705530706
C         5.39865552782805   -0.48830164329158   -1.32278871484129
H         6.24667235815075   -1.10209245845505   -1.61104266165454
H         5.22403106513940    0.25787722595900   -2.09226263490491
H         5.62256757928821    0.02423031950975   -0.39474964822766
C         3.73073134918556   -1.89847084172657   -2.54128404228826
H         2.84168311403927   -2.51342318993533   -2.42900749778417
H         3.47614723408244   -1.06054443356455   -3.18496195555937
H         4.52827287573306   -2.47124850360259   -3.00285645395671
H        -3.38793303165537   -3.97865508339144   -2.56909897117133
H        -5.19322533712083    1.48919991897192    1.29201473710884
C         0.23590000000010   -1.68139999999996    2.96029999999989
C        -1.07747658872920   -1.97612132982864    3.37204921894056
C         1.20299290716155   -1.98825503378275    3.92907378440902
C        -1.40899402159167   -2.47808991585529    4.62767681844673
H        -1.89636367101004   -1.82878964759787    2.68140004954550
C         0.91032082877598   -2.52034506276118    5.17669249187247
Br        3.07318232971636   -1.81120242372078    3.62950320796875
C        -2.82119177750625   -2.76659786538788    5.05642692776881
C        -0.39444081131856   -2.76928945495821    5.52876589239363
H         1.71919587358407   -2.76963719630654    5.84677224368631
C        -3.44762904318988   -4.04638145777604    4.45523496666255
H        -3.46357871003039   -1.91583239562415    4.82081231963645
H        -2.80950132427006   -2.87672491336604    6.14311982934608
H        -0.61546086949237   -3.21094544067698    6.48833354762281
C        -2.40699294392352   -5.10438562650891    4.09456896474820
C        -4.44902041873625   -4.62689354563002    5.45471483774854
H        -3.98243737465108   -3.77485983608918    3.53856724922527
H        -1.82501612688522   -5.38912851406219    4.96767144332661
H        -1.72322495968046   -4.73339875454093    3.33538112159711
H        -2.90292351419874   -5.99149605138373    3.70619322171893
H        -3.92135142906707   -5.01958896953982    6.32214150767481
H        -5.01690800466982   -5.43850129062601    5.00658158891973
H        -5.14599091025672   -3.86376752799403    5.79368283318020
108
 energy: -152.673018659964 gnorm: 0.036079648428 xtb: 6.4.0 (f63f532)
N        -0.94167407191811   -2.07924950196430   -0.27671650432089
C        -2.21609353781813   -1.66565586977679   -0.38608293631832
C        -3.12267338438177   -2.34085464856322   -1.21291125464609
C        -2.70935896447552   -3.44506355388852   -1.92315011617060
C        -1.38809623839910   -3.86438613052018   -1.79312529482022
C        -0.55434545996399   -3.14652612505956   -0.96395596173817
H         0.47716190946022   -3.43754127197177   -0.82652385315942
H        -1.02236071038644   -4.72730914283363   -2.32232430949406
H        -4.14148725818826   -2.00501398774915   -1.30283887304474
C        -2.58181036559535   -0.49486351137724    0.39778857431006
N        -1.59249458082664    0.09077841284662    1.10212968725388
C        -1.88471763792356    1.14916503053070    1.84817181890167
C        -3.15114063139949    1.68523324837383    1.95446586524745
C        -4.18303469903905    1.09483924253030    1.23113594484768
C        -3.89050253256674    0.00215661342374    0.44573843726677
H        -4.67829296710867   -0.47261072088701   -0.11318099284661
H        -3.33147998053408    2.53275278996954    2.59332262608636
H        -1.05252792249993    1.57774360944194    2.38310032254737
Ir        0.42150000000000   -0.81650000000002    0.91330000000000
H         0.87260000000000   -2.23030000000000    1.54050000000000
B         0.48943220557407    0.44107659926602   -0.75160762451319
O         0.13519241815552   -0.02110619696698   -2.00982328444375
C         0.00047914026599    1.09082067931977   -2.90535182830798
C         0.49129253971730    0.73031565467770   -4.30472386207768
H         1.50402628723427    0.34490586569395   -4.28130652967035
H         0.45200339480133    1.61152903522748   -4.93845399578752
H        -0.15478685980418   -0.03468918137684   -4.72602080985048
C        -1.50065194821403    1.41292563632598   -2.96865864160175
H        -1.70306417476953    2.22089866935307   -3.66370485229194
H        -2.03177644231930    0.52106141990370   -3.29308879805203
H        -1.85817021187334    1.67725981481853   -1.97596940681816
C         0.81978800306930    2.20417539484968   -2.18391817802877
O         0.76532799531944    1.78486863526256   -0.81438213685224
C         2.29778295396935    2.19801864327400   -2.59277225235110
H         2.70324332870142    1.20310838375684   -2.43197076987677
H         2.42425380181524    2.50608148403445   -3.62573059970382
H         2.84085616911035    2.88397061449533   -1.94818214911958
C         0.26413059696480    3.61881358526096   -2.32621231727681
H        -0.73297326476201    3.69944846263024   -1.90775477703880
H         0.91330444356746    4.30390693839471   -1.78867150600994
H         0.24482708345208    3.90130347912688   -3.37455997463445
B         1.55461106110365    0.65705476415755    1.84981322478494
O         2.91123624553414    0.63233400529549    2.05327649525574
C         3.35315187677329    1.92070409713257    2.49146363309231
C         4.51756541935001    1.79362522304030    3.46874461709892
H         4.26968897604567    1.14029371365740    4.29735653973725
H         5.36835565392286    1.36128694304749    2.95163344071718
H         4.78906844743334    2.77609676384455    3.84114117894428
C         3.80686609558760    2.64260742064917    1.21790087745267
H         4.20676481396268    3.62843643249513    1.42624898250164
H         4.57137048837358    2.03314606636874    0.74399483017454
H         2.96227120081058    2.69584299879351    0.53597539734711
C         2.04668773609142    2.52352642184939    3.09017407235878
O         1.02457918805290    1.81612270626754    2.37118088057534
C         1.88556693312161    4.02568118266159    2.89375241122300
H         1.84330924446147    4.26963922301815    1.83854171675097
H         0.95940162044695    4.35047303075513    3.35832902831760
H         2.71796000102371    4.54414326370503    3.35819343141873
C         1.86001288404354    2.16584752607022    4.57122788442418
H         1.98413473520214    1.09445958953161    4.70463125065819
H         2.56665377279560    2.69761091090801    5.19784635516676
H         0.84744693422817    2.42723485897418    4.86893955951974
B         2.27820000000002   -1.33090000000019    0.17409999999991
O         2.92834801500388   -2.52673144104568    0.42253678750035
C         4.26518248982012   -2.47619587653964   -0.10890594580792
C         5.20350373766468   -2.07094435417474    1.03302202038285
H         4.88380874481270   -1.11275850661940    1.43130762748239
H         5.12635682855002   -2.80335675444697    1.83069436049879
H         6.23423526665105   -2.02130910792805    0.69727208804822
C         4.68629544891732   -3.84845070518537   -0.62578338743703
H         4.72598313875947   -4.53381944741257    0.21508641346301
H         5.67461558062929   -3.77600273363678   -1.06738336032996
H         3.98813255035558   -4.24052999153887   -1.35602885107237
C         4.14519490024841   -1.35500814563592   -1.18222796304219
O         3.03444428279782   -0.58126393904173   -0.69854467047789
C         5.38624636630173   -0.48073328740141   -1.33118612052421
H         6.23381527991881   -1.09806124665689   -1.61117422824814
H         5.21452722376754    0.25966723446525   -2.10603346730151
H         5.60473569377370    0.03674542796607   -0.40501075731772
C         3.73500118144013   -1.90168964013126   -2.55614440809295
H         2.84703559316837   -2.51811986474949   -2.44872263467323
H         3.48539963858411   -1.06560564506730   -3.20352224105099
H         4.54027460115879   -2.47213283003384   -3.00537997744299
H        -3.39486099858099   -3.97369681892753   -2.56573558218819
H        -5.18932974227212    1.47888233487754    1.28690621657070
C         0.23590000000020   -1.68139999999991    2.96029999999976
C        -1.08083752922813   -1.97563524925227    3.36242954011287
C         1.19830977757063   -1.97129519835029    3.93805305959501
C        -1.42031195351291   -2.46507381044229    4.62038081528213
H        -1.89306184751441   -1.83894731315485    2.66131464346266
C         0.89819882905340   -2.48420275618524    5.19065308168694
Br        3.07256414308599   -1.81947768945711    3.64502631817927
C        -2.83565135890864   -2.75687582858553    5.03719706073278
C        -0.40933163659725   -2.73533770077919    5.53351495919638
H         1.70264622439824   -2.71819180570257    5.87199331047462
C        -3.45092014564929   -4.04532966656277    4.44007693312660
H        -3.47991686234385   -1.91200861904102    4.78504715021873
H        -2.83672096987931   -2.85669062189919    6.12503742398721
H        -0.63691014025540   -3.16407653019897    6.49762553439683
C        -2.40166655859202   -5.10215199431514    4.10048460053315
C        -4.46187098225851   -4.62201200154909    5.43235652628699
H        -3.97680760521669   -3.78388171719561    3.51508234135407
H        -1.82843518172430   -5.37562428480071    4.98311861107760
H        -1.71157482865189   -4.73456271365782    3.34545324185844
H        -2.88937933905531   -5.99502533391621    3.71487770504816
H        -3.94314733516026   -5.00436602262216    6.30997598866546
H        -5.01911092138472   -5.44082805762272    4.98352011605182
H        -5.16799982510296   -3.86005987935190    5.75541715565056
108
 energy: -152.674891240149 gnorm: 0.036128781971 xtb: 6.4.0 (f63f532)
N        -0.92921301226280   -2.07660834993336   -0.29002472542740
C        -2.20437710198056   -1.65955613744504   -0.39704967323514
C        -3.11576339824518   -2.33341190965955   -1.22152500202771
C        -2.70955843154418   -3.44052637046224   -1.93107486830803
C        -1.38633147278753   -3.86104016527322   -1.80750469142651
C        -0.54690129434953   -3.14318682351291   -0.98258437748007
H         0.48544369578051   -3.43742929925867   -0.85303336858954
H        -1.02515732177563   -4.72563950792524   -2.33762551532825
H        -4.13370403359803   -1.99248665254443   -1.30728745779934
C        -2.56825162913944   -0.48972447297495    0.38567904239586