15
 energy: -23.903592104203 gnorm: 0.070555586268 xtb: 6.4.1 (1a32961)
C        -0.97073000000000   -1.47745000000000    0.00854000000000
C        -2.13684000000000   -0.71032000000000    0.01173000000000
C        -2.03345000000000    0.67572000000000    0.01137000000000
N        -0.88029000000000    1.38322000000000    0.01048000000000
C         0.21155000000000    0.59601000000000    0.01013000000000
N         1.49899000000000    1.05749000000000    0.01452000000000
C         2.37282000000000   -0.00065000000000    0.01605000000000
C         1.62809000000000   -1.16227000000000    0.00802000000000
C         0.25510000000000   -0.79392000000000    0.00843000000000
H        -1.01222000000000   -2.56116000000000    0.00860000000000
H        -3.11101000000000   -1.18699000000000    0.01475000000000
H        -2.93371000000000    1.28657000000000    0.01268000000000
H         1.73934000000000    2.03776000000000    0.01847000000000
H         3.44169000000000    0.16458000000000    0.02248000000000
H         2.02828000000000   -2.16755000000000    0.00612000000000
15
 energy: -23.906687553923 gnorm: 0.027913826413 xtb: 6.4.1 (1a32961)
C        -0.96526768487383   -1.48267091256994    0.00853072043048
C        -2.11557646088806   -0.70945510838342    0.01064082760606
C        -2.02163464523409    0.67999546447300    0.01196964502166
N        -0.88372737759553    1.37130593172809    0.01282169558693
C         0.20862328995132    0.60581275683610    0.01213359118298
N         1.48939865555904    1.06657602696758    0.01513635010324
C         2.34632708655785   -0.00324921891455    0.01398006772036
C         1.62672402534181   -1.16573471709073    0.01097931913502
C         0.25345053770226   -0.80368552739293    0.00913638950359
H        -1.01077430233445   -2.56284612404416    0.00747012840605
H        -3.08755060178192   -1.17925440834786    0.01166671096754
H        -2.91729573359837    1.29061543968336    0.01272205165312
H         1.73861071818552    2.04233376841317    0.01841197622864
H         3.40772568882908    0.15356047654670    0.01701511450924
H         2.02857680417937   -2.16226384790440    0.00975541194509
15
 energy: -23.907148324695 gnorm: 0.005171098748 xtb: 6.4.1 (1a32961)
C        -0.96448448068353   -1.48338087370118    0.00985625748783
C        -2.11047030705025   -0.71051272193338    0.01055395199580
C        -2.02107013702881    0.68221192022408    0.01207460623752
N        -0.88704624305284    1.36057649079510    0.01318816915633
C         0.20987266418279    0.61267396739420    0.01278752704249
N         1.48810988323890    1.07159183152973    0.01501187762307
C         2.33720031276855   -0.00276519282356    0.01467248929676
C         1.62919236462604   -1.16563893593216    0.01072311793680
C         0.25337642406046   -0.80822683628733    0.01056803236235
H        -1.01130139641910   -2.56236209706842    0.00792664088333
H        -3.08352061610603   -1.17622358814402    0.00989035780622
H        -2.91604927470423    1.29087565524448    0.01260715988415
H         1.74518006060234    2.04402917209662    0.01740058651290
H         3.39833427723709    0.14713522878929    0.01681563308278
H         2.03028646832861   -2.15894402018345    0.00829359269167
15
 energy: -23.907174966375 gnorm: 0.002038104285 xtb: 6.4.1 (1a32961)
C        -0.96491821661616   -1.48239050569831    0.00912604646828
C        -2.11218856277313   -0.71150281082169    0.00996396411162
C        -2.02318956214024    0.68221211411349    0.01228127691800
N        -0.88793567733276    1.35882289811693    0.01418774865817
C         0.21096827615339    0.61481870873191    0.01357979977980
N         1.48923455245108    1.07253486456018    0.01534195041778
C         2.33777568175639   -0.00178180200345    0.01360474535854
C         1.62999854952715   -1.16509345311354    0.01184718101943
C         0.25347283240470   -0.80809911380870    0.01078824944311
H        -1.01110806750158   -2.56174194260628    0.00746360329579
H        -3.08570467565093   -1.17715654395563    0.00897550341510
H        -2.91880043641827    1.28965723362160    0.01274683506951
H         1.74982912627087    2.04407060049445    0.01756259585375
H         3.40011140048561    0.14581707088142    0.01440851719846
H         2.03006477938389   -2.15912731851237    0.01049198299266
15
 energy: -23.907180612891 gnorm: 0.000923581848 xtb: 6.4.1 (1a32961)
C        -0.96495178418676   -1.48151683985023    0.00987786042157
C        -2.11337826797361   -0.71217463926364    0.01017625712968
C        -2.02443818798498    0.68190691254274    0.01219590124218
N        -0.88860991929704    1.35841359554348    0.01410858101852
C         0.21132116765672    0.61619316141503    0.01363371707256
N         1.48964221874304    1.07292448674592    0.01519938604186
C         2.33827048949541   -0.00107711009921    0.01410416850397
C         1.63001341646368   -1.16458965838211    0.01115951273992
C         0.25342255100601   -0.80747414831236    0.01142434072314
H        -1.01027409839013   -2.56126740667507    0.00781207593729
H        -3.08691424807693   -1.17817058159409    0.00859849939360
H        -2.92042682697870    1.28861765145585    0.01250233980093
H         1.75348331735909    2.04373574891107    0.01715085672945
H         3.40126190087702    0.14487130206400    0.01518195865635
H         2.02918827128719   -2.15935247450139    0.00924454458899
15
 energy: -23.907181759901 gnorm: 0.000572632121 xtb: 6.4.1 (1a32961)
C        -0.96476051377304   -1.48118760061149    0.00901463391079
C        -2.11366719248918   -0.71243036873942    0.00986432469196
C        -2.02470155903957    0.68156841331647    0.01230862903710
N        -0.88906394416399    1.35866722982214    0.01432892392589
C         0.21108464502711    0.61675386321961    0.01381016264734
N         1.48937154034059    1.07303384422281    0.01537935526255
C         2.33824755787826   -0.00076460034159    0.01355582175677
C         1.62965988320726   -1.16430967948863    0.01181344018400
C         0.25330980821046   -0.80693026215084    0.01115415778573
H        -1.00945521459940   -2.56111618218472    0.00746574693734
H        -3.08697890610592   -1.17874249542510    0.00869124347264
H        -2.92076412218487    1.28815440056334    0.01279405635092
H         1.75567137863770    2.04326115279872    0.01737066525900
H         3.40129188418733    0.14444625160906    0.01415645554955
H         2.02836475486727   -2.15936396661037    0.01066238322842
15
 energy: -23.907182171074 gnorm: 0.000242731086 xtb: 6.4.1 (1a32961)
C        -0.96467338650432   -1.48131234200112    0.00965888997206
C        -2.11350908785967   -0.71242211983168    0.01014768600035
C        -2.02457849437050    0.68143782261667    0.01225783070400
N        -0.88923568397939    1.35886651201940    0.01414373087309
C         0.21082793664107    0.61675895230092    0.01366303120141
N         1.48905035022782    1.07309291334706    0.01524590017736
C         2.33800022441768   -0.00074918915008    0.01394357932433
C         1.62949688263270   -1.16426862499010    0.01131477781375
C         0.25325488602431   -0.80680343675143    0.01135672622774
H        -1.00924414907457   -2.56118988729332    0.00761536264589
H        -3.08670189527098   -1.17881304597154    0.00863624002436
H        -2.92059483321318    1.28818450327799    0.01257451650505
H         1.75645297906953    2.04299229060329    0.01718975476156
H         3.40088147520314    0.14450575538771    0.01492581864867
H         2.02818279605637   -2.15924010356378    0.00969615512037
