103
 energy: -154.393791214441 gnorm: 0.077459396182 xtb: 6.4.1 (1a32961)
N        -0.96510000000000   -2.11530000000000   -0.24090000000000
C        -2.24700000000000   -1.69840000000000   -0.36220000000000
C        -3.14040000000000   -2.36820000000000   -1.21200000000000
C        -2.70220000000000   -3.47560000000000   -1.93050000000000
C        -1.37780000000000   -3.89880000000000   -1.78760000000000
C        -0.54290000000000   -3.18670000000000   -0.93510000000000
H         0.49810000000000   -3.45630000000000   -0.78940000000000
H        -0.99570000000000   -4.76030000000000   -2.32770000000000
H        -4.16500000000000   -2.02890000000000   -1.31830000000000
C        -2.62130000000000   -0.50950000000000    0.44100000000000
N        -1.62600000000000    0.07330000000000    1.16020000000000
C        -1.89680000000000    1.15240000000000    1.91690000000000
C        -3.17230000000000    1.70330000000000    1.99650000000000
C        -4.20510000000000    1.11740000000000    1.26270000000000
C        -3.92610000000000    0.00250000000000    0.47820000000000
H        -4.71960000000000   -0.46420000000000   -0.09520000000000
H        -3.34630000000000    2.57510000000000    2.62070000000000
H        -1.04450000000000    1.57420000000000    2.43690000000000
Ir        0.42150000000000   -0.81650000000000    0.91330000000000
H         0.87260000000000   -2.23030000000000    1.54050000000000
B         0.50670000000000    0.41560000000000   -0.81540000000000
O         0.19500000000000   -0.04700000000000   -2.09150000000000
C         0.00650000000000    1.10040000000000   -2.95430000000000
C         0.49020000000000    0.74740000000000   -4.35780000000000
H         1.51610000000000    0.37380000000000   -4.33700000000000
H         0.44730000000000    1.62240000000000   -5.01670000000000
H        -0.14740000000000   -0.03390000000000   -4.78430000000000
C        -1.50120000000000    1.39560000000000   -2.96670000000000
H        -1.75370000000000    2.21460000000000   -3.64850000000000
H        -2.03200000000000    0.49450000000000   -3.28930000000000
H        -1.85170000000000    1.65210000000000   -1.96220000000000
C         0.84230000000000    2.20670000000000   -2.22040000000000
O         0.75200000000000    1.78260000000000   -0.83690000000000
C         2.32930000000000    2.18620000000000   -2.59900000000000
H         2.74130000000000    1.18500000000000   -2.45750000000000
H         2.48870000000000    2.51300000000000   -3.63180000000000
H         2.87200000000000    2.86270000000000   -1.93200000000000
C         0.28440000000000    3.62290000000000   -2.33660000000000
H        -0.72650000000000    3.69040000000000   -1.92910000000000
H         0.92130000000000    4.31480000000000   -1.77610000000000
H         0.26430000000000    3.94810000000000   -3.38320000000000
B         1.56300000000000    0.60960000000000    1.84840000000000
O         2.92780000000000    0.55230000000000    2.15020000000000
C         3.36330000000000    1.88660000000000    2.50260000000000
C         4.53140000000000    1.78590000000000    3.47740000000000
H         4.27910000000000    1.16090000000000    4.33690000000000
H         5.39390000000000    1.33790000000000    2.97340000000000
H         4.82390000000000    2.77870000000000    3.83820000000000
C         3.79700000000000    2.56850000000000    1.19670000000000
H         4.20020000000000    3.57090000000000    1.37680000000000
H         4.56740000000000    1.95560000000000    0.72110000000000
H         2.95240000000000    2.63260000000000    0.50540000000000
C         2.05040000000000    2.50090000000000    3.09320000000000
O         1.03750000000000    1.81620000000000    2.31910000000000
C         1.89100000000000    4.00450000000000    2.88650000000000
H         1.87290000000000    4.25440000000000    1.82410000000000
H         0.94940000000000    4.34260000000000    3.33170000000000
H         2.71080000000000    4.55150000000000    3.36630000000000
C         1.82470000000000    2.13200000000000    4.56520000000000
H         1.92610000000000    1.05330000000000    4.71320000000000
H         2.52610000000000    2.65280000000000    5.22540000000000
H         0.80630000000000    2.41580000000000    4.84900000000000
B         2.27820000000000   -1.33090000000000    0.17410000000000
O         2.89460000000000   -2.57740000000000    0.38450000000000
C         4.26930000000000   -2.48200000000000   -0.07210000000000
C         5.10900000000000   -2.05380000000000    1.14010000000000
H         4.76350000000000   -1.08740000000000    1.51750000000000
H         4.98050000000000   -2.79470000000000    1.93590000000000
H         6.17420000000000   -1.99290000000000    0.89300000000000
C         4.71950000000000   -3.84660000000000   -0.58470000000000
H         4.75280000000000   -4.56130000000000    0.24420000000000
H         5.72330000000000   -3.78370000000000   -1.02010000000000
H         4.03500000000000   -4.23600000000000   -1.34170000000000
C         4.16440000000000   -1.36220000000000   -1.16300000000000
O         3.08520000000000   -0.55030000000000   -0.65400000000000
C         5.40720000000000   -0.48870000000000   -1.31550000000000
H         6.27320000000000   -1.09010000000000   -1.61530000000000
H         5.23300000000000    0.26930000000000   -2.08590000000000
H         5.64270000000000    0.02650000000000   -0.38240000000000
C         3.71800000000000   -1.89830000000000   -2.53110000000000
H         2.82530000000000   -2.52160000000000   -2.42740000000000
H         3.46090000000000   -1.05250000000000   -3.17550000000000
H         4.50570000000000   -2.48290000000000   -3.01790000000000
H        -3.38500000000000   -4.00130000000000   -2.59310000000000
H        -5.21400000000000    1.52080000000000    1.29960000000000
C         0.23590000000000   -1.68140000000000    2.96030000000000
C        -1.01216153657337   -2.11246180257742    3.42700098811286
C         1.29937063084073   -1.82930537068114    3.87558442689671
C        -1.19047436482444   -2.62773197099774    4.71256184073613
H        -1.87489613765762   -2.09454463763011    2.77213699615071
C         2.68719509382408   -1.63495396182716    3.63282209141212
C         1.12945987510078   -2.32381780134490    5.17475262109462
C        -2.47543155819313   -3.14654110343344    5.23105257793529
C        -0.11487407755589   -2.74373075138878    5.59532544902967
N         3.83328851764859   -1.63793848160481    3.73491578028112
H         1.99222124602953   -2.42378375090579    5.82194496856948
O        -2.55004996567081   -4.01895974373973    6.07280064747899
O        -3.56144835420590   -2.53564123914018    4.73222012196160
H        -0.26335989246186   -3.18034375469433    6.57434635153705
C        -4.80223165166851   -2.94228229587366    5.30900381599297
H        -5.54387978557947   -2.22269154695801    4.96727364509088
H        -4.72216232691860   -2.93547753736876    6.39950334650132
H        -5.05435680215546   -3.95435436141970    4.98409076522715
103
 energy: -154.401031876310 gnorm: 0.047450755759 xtb: 6.4.1 (1a32961)
N        -0.96262478899124   -2.10229457045154   -0.25091612948085
C        -2.23959912107253   -1.69065207095791   -0.36430759757279
C        -3.13445441294169   -2.36209356088283   -1.20579710463525
C        -2.70414297327738   -3.46412460820642   -1.92157809331668
C        -1.38481233728065   -3.88320260017685   -1.78296602308999
C        -0.55421896823113   -3.16915378699682   -0.94065358389410
H         0.47981676948860   -3.44868849961497   -0.79168524070139
H        -1.00832863501600   -4.74303477312792   -2.31821468360697
H        -4.15474912561432   -2.02649631061107   -1.30989322910454
C        -2.61131786216529   -0.51169907955255    0.43534720509088
N        -1.61990494051109    0.07074012576320    1.14507166623422
C        -1.89818090589679    1.14047542757663    1.89370660167579
C        -3.16587346896270    1.68846167506752    1.98276511817764
C        -4.19604555525220    1.10415253557638    1.25583524570536
C        -3.91442107261657   -0.00310930000213    0.47590491006729
H        -4.70567578062884   -0.46730253386741   -0.09223413729816
H        -3.34078820101517    2.55143708641339    2.60956501409760
H        -1.05481445344887    1.55964363321897    2.42182285352133
Ir        0.42150000000000   -0.81650000000000    0.91330000000000
H         0.87260000000000   -2.23030000000000    1.54050000000000
B         0.49548490693642    0.42032609854209   -0.79276849250300
O         0.17521819063544   -0.03738665002139   -2.06362978720372
C         0.01003184402659    1.09572475508666   -2.94344884278990
C         0.48892661794350    0.74689779422040   -4.34853181737927
H         1.50797876842870    0.37053116951058   -4.32744731176249
H         0.44390403608670    1.62257961723023   -4.99651217526439
H        -0.14971273395892   -0.02891142878697   -4.76927994164718
C        -1.49415556748719    1.39818228360003   -2.96897500249686
H        -1.73234475181068    2.21123220301949   -3.65293769975512
H        -2.02419492649553    0.50134912404367   -3.28946949590594
H        -1.84056259982834    1.65325575211343   -1.96733654593172
C         0.83195544294634    2.20544777756751   -2.21170556613530
O         0.75570981587237    1.77627132818309   -0.83460493303707
C         2.31434203259185    2.19025946986538   -2.59961165953667
H         2.71975182799826    1.19155175393802   -2.45036050704886
H         2.46539049036790    2.51232872159650   -3.62916104271610
H         2.85651366576602    2.86498052380548   -1.93822710114492
C         0.27986551857024    3.62153828004130   -2.33807967044555
H        -0.72351427088659    3.69079096054831   -1.92616632451542
H         0.91948616829256    4.30535419730409   -1.78170179961903
H         0.26245828460394    3.93424905430458   -3.38217429781844
B         1.56041817685726    0.62909124045413    1.84475338199362
O         2.91969749734968    0.57840851429360    2.11569424941174
C         3.36136673528945    1.89372492986115    2.50493232474844
C         4.53045243854712    1.79092401732277    3.47599697952082
H         4.27987283623557    1.15660059538220    4.32190521598147
H         5.38361925487127    1.34432807873688    2.96845451867446
H         4.81472903456393    2.77994549608392    3.83548186495749
C         3.79840331932677    2.58084176616059    1.20755085076001
H         4.20167499149723    3.57502114994997    1.39351245495723
H         4.56180625350414    1.96652781542911    0.73311160936373
H         2.95083335324114    2.63371272580414    0.52541408686085
C         2.05114325339363    2.50843347444182    3.08865563088415
O         1.03435757856147    1.81480090474495    2.33733588585346
C         1.89176498888637    4.01010451232374    2.88974990410688
H         1.86677084838808    4.25312364797934    1.83134967198648
H         0.95476890300025    4.33909253464920    3.33722449592084
H         2.71349674385676    4.54439117322728    3.36552647394446
C         1.83185051667001    2.14111891348291    4.56058449698092
H         1.94020759385632    1.06566434607896    4.69875254242480
H         2.53335915363955    2.66195576487783    5.20923997582207
H         0.81701656150246    2.41729121094788    4.84742987852681
B         2.27820000000000   -1.33089999999999    0.17410000000000
O         2.90029958097048   -2.56097774662687    0.39072014810885
C         4.26504829236517   -2.48407479528874   -0.08329399844369
C         5.12216161062592   -2.05973359236238    1.11134563224971
H         4.77130424946326   -1.10182256920896    1.49020525284320
H         4.99316753623921   -2.78864462724674    1.90940935247952
H         6.17865972597491   -2.00195654975005    0.85603905502702
C         4.71730313817197   -3.84699529522367   -0.59218740736189
H         4.74922804850746   -4.54855577841159    0.24022701180489
H         5.71508539927724   -3.77489393495664   -1.02392995115203
H         4.03151095160616   -4.23644761661976   -1.33990897684159
C         4.16355693510704   -1.35982825908961   -1.16108827848050
O         3.07003272818328   -0.56391868523774   -0.66444738343158
C         5.40678307116444   -0.49130464774113   -1.31713110157301
H         6.26294335859574   -1.09717538689636   -1.61239391304839
H         5.22946054033622    0.26069786521279   -2.08490029878279
H         5.63438655499406    0.02078996865125   -0.38670675488424
C         3.72652923821369   -1.89841696994196   -2.52913156243505
H         2.83529470351149   -2.51500042161226   -2.42029666945297
H         3.46959274280546   -1.05688948206966   -3.17103130133888
H         4.51745008281188   -2.47523176473744   -3.00545773440755
H        -3.38350014631916   -3.98875810348140   -2.57941545782320
H        -5.20009403061285    1.50476960037305    1.29638841645959
C         0.23590000000000   -1.68140000000002    2.96030000000001
C        -1.01389321806341   -2.11101594625718    3.42545259179192
C         1.29764376921735   -1.82517289773142    3.88271452625757
C        -1.19542899736186   -2.62219244630883    4.71101153697814
H        -1.87386386068238   -2.09368553499387    2.77023684726915
C         2.68158831228367   -1.62846586514882    3.64412242667115
C         1.11943147081448   -2.31776379912829    5.18183153601120
C        -2.48095733484019   -3.14004345524244    5.22676189376201
C        -0.12212863301807   -2.73539730038459    5.59568344912736
N         3.82575641455354   -1.63074755216109    3.74690833050442
H         1.97757318836952   -2.41565543893946    5.83173919432196
O        -2.55663651030179   -4.01025468611862    6.06917888654550
O        -3.56425522811250   -2.53395074280784    4.72509095631274
H        -0.27372559241661   -3.16856893283755    6.57262683013908
C        -4.80698919870921   -2.94018609596982    5.29793792692946
H        -5.54702596259877   -2.22330733770754    4.95387023711750
H        -4.73150238280268   -2.93203683101930    6.38799629115296
H        -5.05824186855716   -3.95194369637195    4.97403104522006
103
 energy: -154.403376469232 gnorm: 0.037774965640 xtb: 6.4.1 (1a32961)
N        -0.95660802919782   -2.09718687375811   -0.25788385643627
C        -2.23019383166851   -1.68507837519641   -0.36703174279860
C        -3.13031292164839   -2.35446499221825   -1.20306793106795
C        -2.70858208006733   -3.45446847658182   -1.91931557427014
C        -1.39027178065633   -3.87420864855653   -1.78505564666267
C        -0.55966675354751   -3.16107746238261   -0.94686732352097
H         0.47285858583721   -3.44482966335256   -0.80552242093322
H        -1.01943829661039   -4.73330736006251   -2.31867474368702
H        -4.14902132889705   -2.01979944967240   -1.29956541458004
C        -2.59857627817806   -0.51336509249696    0.42846198935268
N        -1.61079736373664    0.06647278384689    1.13754322398166
C        -1.89524464389059    1.13029520959316    1.88115333287816
C        -3.15937145106888    1.67766687728592    1.97384304859942
C        -4.18900944210205    1.09279131085555    1.24810867402561
C        -3.90255921642822   -0.00855980067520    0.46879236738774
H        -4.69132966438431   -0.47547733492051   -0.09566160949878
H        -3.33526005602764    2.53561342867227    2.60145725407908
H        -1.05730814041344    1.55567478285951    2.40960036591162
Ir        0.42150000000000   -0.81650000000000    0.91330000000000
H         0.87260000000000   -2.23030000000000    1.54050000000000
B         0.49417271278742    0.42778169358927   -0.77217288575271
O         0.15373322832886   -0.02995074526093   -2.03520863794312
C         0.00432695313444    1.09170353671335   -2.92455192215009
C         0.48814776558795    0.73902769844888   -4.32716503406491
H         1.50344739205358    0.35932362548798   -4.30718803169348
H         0.44291054273981    1.61830235662967   -4.96440439801210
H        -0.15427179172757   -0.03040049126910   -4.74684399107519
C        -1.49799352543816    1.40364125336016   -2.96861961412005
H        -1.71749813897383    2.21323863023422   -3.65764851980423
H        -2.02745846769837    0.50951743531874   -3.29023694317218
H        -1.84607767884653    1.66172030856951   -1.97078372321226
C         0.82323059592537    2.20300324836264   -2.19847506734334
O         0.75895894818831    1.77615428565383   -0.82632379677682
C         2.30281714384239    2.19407485482601   -2.59701643647973
H         2.70621708559518    1.19734405040479   -2.44141972071183
H         2.43989041609978    2.50958823898608   -3.62717969634021
H         2.84463318383023    2.87333037121709   -1.94383115421411
C         0.26872474760010    3.61776733467371   -2.33243098379928
H        -0.73033847288191    3.69285700395282   -1.91700493928171
H         0.91373449038038    4.29971787259413   -1.78537997386133
H         0.25205191128693    3.91410009082171   -3.37767640513679
B         1.55856908098975    0.64070295876567    1.85114676378122
O         2.91340500105509    0.59893585479670    2.08641736822592
C         3.35672945143734    1.90143082658965    2.49935052517359
C         4.52361216723246    1.79121455547150    3.47250776438096
H         4.27697724280920    1.14685007251513    4.30895142726600
H         5.37353103324196    1.35248610546284    2.95893139972925
H         4.79822879593936    2.77789331034191    3.83468431441373
C         3.80100737494512    2.60606980387237    1.21391290856999
H         4.20305717284553    3.59497152185364    1.40937163268706
H         4.56241215454493    1.99277667775241    0.74003204777773
H         2.95294866381722    2.65491968003814    0.53552014086302
C         2.04994447487832    2.51285825056610    3.08828780994997
O         1.03153878205659    1.81142081554125    2.35435251992037
C         1.89081717797168    4.01448225880800    2.88973870248156
H         1.85707320628558    4.25647910574533    1.83369945204687
H         0.95959313741346    4.33925238113465    3.34498356116898
H         2.71687068036037    4.53907400413205    3.36030181445190
C         1.84561356928051    2.15168023546978    4.56466703857688
H         1.96249385011145    1.07814818136262    4.69631765264242
H         2.54906329045063    2.67759749305253    5.20134855157018
H         0.83227814357048    2.42009946203681    4.85488356467916
B         2.27820000000001   -1.33089999999997    0.17409999999999
O         2.90561205648034   -2.54564242777023    0.40265679587935
C         4.25914341215178   -2.48133328931824   -0.09082331215406
C         5.13831581513695   -2.06364030098151    1.08816858710861
H         4.79206926689454   -1.10722021404006    1.46923921026497
H         5.01647645348689   -2.78732477124115    1.88859096674474
H         6.18592261621635   -2.01206963858280    0.81115005792076
C         4.70429890540508   -3.84565668158535   -0.60361407630978
H         4.74017720261239   -4.53841464438223    0.23206251565699
H         5.69728625997663   -3.76619335278073   -1.03584094254907
H         4.01679498216374   -4.23802786113403   -1.34448727260631
C         4.15480255769789   -1.35945857544814   -1.16610384878759
O         3.05260468909934   -0.57462721309293   -0.67737749011661
C         5.39830803503050   -0.49092460793863   -1.31731718037269
H         6.24694074378447   -1.10368019678052   -1.60673263792234
H         5.22253400205610    0.25503148528744   -2.08704304377789
H         5.62174177614446    0.02179092153231   -0.38916543807150
C         3.73224979186785   -1.90053960440086   -2.53803392382865
H         2.84283334352310   -2.51515008894786   -2.42781283441834
H         3.47864137338681   -1.06114230337801   -3.18021312992382
H         4.53012343655512   -2.47238793521538   -3.00060161668770
H        -3.38983199966036   -3.97924312551959   -2.57026155863250
H        -5.19189717250675    1.48814220618234    1.29244884965426
C         0.23589999999999   -1.68140000000005    2.96030000000003
C        -1.01660060252195   -2.10870274623866    3.42179462923967
C         1.29485808536496   -1.81773189223257    3.88920375997646
C        -1.20459341743814   -2.61233454593565    4.70833026428246
H        -1.87276629433780   -2.09439062920446    2.76302180190654
C         2.67473539213858   -1.61678982262429    3.64814469666819
C         1.10718383658191   -2.30440381734565    5.19038707473110
C        -2.49210483004848   -3.12907010528035    5.21936148370480
C        -0.13459345315512   -2.71974802750315    5.59795352762111
N         3.81982949790925   -1.60086901975024    3.75035716016560
H         1.96044882792282   -2.39642859949286    5.84603457692838
O        -2.56974680907494   -3.99593052769858    6.06519547851304
O        -3.57210785312173   -2.52937026246519    4.70996255951328
H        -0.29227832374876   -3.14719438513458    6.57520677860743
C        -4.81812234442843   -2.93562612257247    5.27594086903713
H        -5.55647578509111   -2.22145466511764    4.92584536205588
H        -4.74921496224164   -2.92488152720003    6.36617185573608
H        -5.06569123031779   -3.94838082008642    4.95326910442155
103
 energy: -154.404626438950 gnorm: 0.037242239644 xtb: 6.4.1 (1a32961)
N        -0.94810816121463   -2.09520845780018   -0.26877838206404
C        -2.22184643955708   -1.68245751005232   -0.37196712612451
C        -3.12798381894011   -2.35090987790772   -1.20308158899702
C        -2.71323312948349   -3.45142317157899   -1.92079721310286
C        -1.39337171914988   -3.87180355457575   -1.79365035935985
C        -0.55810981268572   -3.15802225826321   -0.96050948801312
H         0.47405901567340   -3.44671695323251   -0.82506921174546
H        -1.02740458595950   -4.73158870813518   -2.32786083117381
H        -4.14621712150589   -2.01413022867613   -1.29311278994358
C        -2.58797158588522   -0.51448891897109    0.42286312061736
N        -1.60121122360168    0.06613817528581    1.13223407109982
C        -1.88952342028278    1.12918250328696    1.87331704179358
C        -3.15444133966302    1.67342738287744    1.96874767755278
C        -4.18444398347397    1.08542094617981    1.24370913082765
C        -3.89376422719809   -0.01281221814675    0.46341877682978
H        -4.68004738076954   -0.48184140609963   -0.10194008114936
H        -3.33211751778512    2.52852218187559    2.59808178412704
H        -1.05546573714981    1.55849539154076    2.40494701096816
Ir        0.42150000000000   -0.81650000000000    0.91330000000000
H         0.87260000000000   -2.23030000000000    1.54050000000000
B         0.48372360063637    0.43904887349068   -0.75277755863364
O         0.12955451249424   -0.02321166690412   -2.00975809712334
C        -0.00601421789484    1.08982964474322   -2.90587050256272
C         0.48484385367138    0.72797797405372   -4.30453267703235
H         1.49744911283199    0.34253082347137   -4.27925544464516
H         0.44621358449537    1.60810249806478   -4.93988756644050
H        -0.16093951346154   -0.03777158290961   -4.72472289390731
C        -1.50693450099635    1.41120967961556   -2.96726255658192
H        -1.71014178951622    2.21885102314344   -3.66252254816439
H        -2.03748364475981    0.51902272721247   -3.29105624395599
H        -1.86290657609688    1.67544949369074   -1.97425966727282
C         0.81363036134135    2.20336637061255   -2.18427798628520
O         0.76030610950776    1.78184228022615   -0.81397146911496
C         2.29117339654294    2.19804389043156   -2.59366557701190
H         2.69747095229856    1.20374464615357   -2.43181611405462
H         2.41686331516465    2.50561636339748   -3.62697347399948
H         2.83377189401972    2.88508576243254   -1.94990665849279
C         0.25657402330204    3.61750122969564   -2.32436427815325
H        -0.73967182177753    3.69627428404923   -1.90385763148493
H         0.90595627621425    4.30300232336119   -1.78764949070934
H         0.23479988840220    3.90098530561726   -3.37248893922342
B         1.55877169347590    0.65358705629966    1.84502362030051
O         2.91200589555275    0.61951841821253    2.05372699734031
C         3.35409086729417    1.91233307299688    2.49068804590158
C         4.51990108503107    1.78984756213178    3.46526875083418
H         4.27480075251778    1.13207340552490    4.29151135269245
H         5.37134447581953    1.36184985403323    2.94571983363025
H         4.78740072023871    2.77308111732037    3.84007859253698
C         3.80392622811010    2.63683275340706    1.21685410205066
H         4.20267842424793    3.62286836189129    1.42825768695921
H         4.56864018702426    2.03019663282285    0.74022238501770
H         2.95817883021965    2.69099474862018    0.53671680685016
C         2.04825657047046    2.51691001056622    3.08934952329064
O         1.02620026821172    1.80826711190217    2.37101924778694
C         1.88476642565869    4.01912866467540    2.89106641693577
H         1.83997649168097    4.26146363248526    1.83572811149196
H         0.95908838772206    4.34328106713556    3.35715408496860
H         2.71700623756902    4.54033173242762    3.35311994468744
C         1.86176676628621    2.16150515244911    4.57077136245665
H         1.98837074876088    1.08955612996777    4.70335329812428
H         2.56807459757039    2.69608522456502    5.19597902536433
H         0.84934654552567    2.42321394720433    4.86843417212457
B         2.27820000000001   -1.33089999999995    0.17409999999997
O         2.91116571612427   -2.53499054222687    0.41657495656461
C         4.25447055273533   -2.47945363919203   -0.09766768762726
C         5.15680678210039   -2.06687937247286    1.06674615178598
H         4.82118957233802   -1.10883092805864    1.45309365071506
H         5.04509849827676   -2.78968889322964    1.86904871799052
H         6.19823171286359   -2.02179256216876    0.76731565660582
C         4.68834039728791   -3.84725222183137   -0.61483532313487
H         4.72966797479856   -4.53729776453154    0.22220517564417
H         5.67718023676199   -3.76732139174479   -1.05484479266046
H         3.99405080660930   -4.23906950798314   -1.34908103454920
C         4.14552035167170   -1.35952354526234   -1.17443799788717
O         3.03585647831842   -0.58237130736599   -0.69440185313094
C         5.38722685158899   -0.48642781109849   -1.32146885211283
H         6.23557967753339   -1.10221557711790   -1.60313817758725
H         5.21436118469056    0.25494804308009   -2.09549281897730
H         5.60461316454807    0.02981280657837   -0.39435523772404
C         3.73679583122829   -1.90432337011742   -2.55010582405197
H         2.84835647922008   -2.52039213291056   -2.44568653335595
H         3.48829846862703   -1.06629801172089   -3.19542719101726
H         4.54208642095363   -2.47363406343179   -3.00108289409924
H        -3.39863048180707   -3.97551935191861   -2.56710713751288
H        -5.18843845516055    1.47615862407602    1.29013296612220
C         0.23589999999998   -1.68140000000010    2.96030000000006
C        -1.01946360093733   -2.10696659531840    3.41606791281542
C         1.29034436840415   -1.80825627960334    3.89599338158633
C        -1.21561471890205   -2.60051688595373    4.70471401248605
H        -1.87110506594889   -2.09770957402278    2.75135361827798
C         2.66661899513453   -1.58662196247977    3.65860021733787
C         1.09351398545499   -2.28498805954681    5.20021493544288
C        -2.50623133121557   -3.11547736257150    5.21000622614279
C        -0.15026600215999   -2.69889944771459    5.60185749495291
N         3.81307284708355   -1.57814392487133    3.74178771096501
H         1.94198677664920   -2.36809651875158    5.86337523064733
O        -2.58721094500187   -3.97699649781026    6.06161779515479
O        -3.58290273227049   -2.52304786092893    4.68821984739268
H        -0.31544236122564   -3.11797089685642    6.58157528905202
C        -4.83330732838321   -2.92940937563005    5.24516918605294
H        -5.56999572663898   -2.21813469769555    4.88603427141740
H        -4.77344597671574   -2.91455909747956    6.33597321311464
H        -5.07579926807202   -3.94394634416720    4.92417958641723
103
 energy: -154.405889610115 gnorm: 0.040549685612 xtb: 6.4.1 (1a32961)
N        -0.93721359089280   -2.09685338788527   -0.28189784235770
C        -2.21188719768360   -1.68174928073162   -0.37846434998430
C        -3.12507454054984   -2.34839439200912   -1.20514982601754
C        -2.71864449504895   -3.44987977935641   -1.92556274581398
C        -1.39641212591087   -3.87128545353145   -1.80828031487751
C        -0.55414088934973   -3.15802028346535   -0.98004379410057
H         0.47900538873345   -3.45064832694625   -0.85517427318245
H        -1.03622394432061   -4.73161393017512   -2.34555537533686
H        -4.14311703694108   -2.00808658331870   -1.28709870505558
C        -2.57518582735959   -0.51651746303723    0.41661313327410
N        -1.58902506125877    0.06432074053904    1.12918133968732
C        -1.88120132957987    1.12918705624900    1.86739760055630
C        -3.14779065098088    1.67031850400706    1.96344498514738
C        -4.17820764178412    1.07880201857601    1.23821442262135
C        -3.88266050525213   -0.01618904220618    0.45601044298115
H        -4.66601125042026   -0.48742948200829   -0.11194407756059
H        -3.32753903098916    2.52366223479240    2.59418058726624
H        -1.05086322643228    1.56470266943685    2.40100899816523
Ir        0.42150000000000   -0.81650000000000    0.91330000000000
H         0.87260000000000   -2.23030000000000    1.54050000000000
B         0.47432640506802    0.45478554119607   -0.72853007008068
O         0.09354380647496   -0.01241833860383   -1.97606076149200
C        -0.02447349213737    1.08967055094676   -2.88028027987226
C         0.47721126027115    0.71005942517073   -4.27185431503839
H         1.48549920031262    0.31329349178269   -4.23363745394948
H         0.45375319846071    1.58777475762457   -4.91171633479177
H        -0.17358435621898   -0.05166773362117   -4.69233907676375
C        -1.52311035714899    1.42459094948539   -2.96521915173426
H        -1.70533973821501    2.22958638016760   -3.66960265518448
H        -2.05638617342818    0.53493092238085   -3.29191160259846