      -----------------------------------------------------------      
     |                   =====================                   |     
     |                           x T B                           |     
     |                   =====================                   |     
     |                         S. Grimme                         |     
     |          Mulliken Center for Theoretical Chemistry        |     
     |                    University of Bonn                     |     
      -----------------------------------------------------------      

   * xtb version 6.4.0 (f63f532) compiled by 'knkr256@seskscpg008.prim.scp' on 2021-04-09

   xtb is free software: you can redistribute it and/or modify it under
   the terms of the GNU Lesser General Public License as published by
   the Free Software Foundation, either version 3 of the License, or
   (at your option) any later version.
   
   xtb is distributed in the hope that it will be useful,
   but WITHOUT ANY WARRANTY; without even the implied warranty of
   MERCHANTABILITY or FITNESS FOR A PARTICULAR PURPOSE.  See the
   GNU Lesser General Public License for more details.
   
   Cite this work as:
   * C. Bannwarth, E. Caldeweyher, S. Ehlert, A. Hansen, P. Pracht,
     J. Seibert, S. Spicher, S. Grimme, WIREs Comput. Mol. Sci., 2020, 11,
     e01493. DOI: 10.1002/wcms.1493
   
   for GFN2-xTB:
   * C. Bannwarth, S. Ehlert and S. Grimme., J. Chem. Theory Comput., 2019,
     15, 1652-1671. DOI: 10.1021/acs.jctc.8b01176
   for GFN1-xTB:
   * S. Grimme, C. Bannwarth, P. Shushkov, J. Chem. Theory Comput., 2017,
     13, 1989-2009. DOI: 10.1021/acs.jctc.7b00118
   for GFN0-xTB:
   * P. Pracht, E. Caldeweyher, S. Ehlert, S. Grimme, ChemRxiv, 2019, preprint.
     DOI: 10.26434/chemrxiv.8326202.v1
   for GFN-FF:
   * S. Spicher and S. Grimme, Angew. Chem. Int. Ed., 2020, 59, 15665-15673.
     DOI: 10.1002/anie.202004239
   
   for DFT-D4:
   * E. Caldeweyher, C. Bannwarth and S. Grimme, J. Chem. Phys., 2017,
     147, 034112. DOI: 10.1063/1.4993215
   * E. Caldeweyher, S. Ehlert, A. Hansen, H. Neugebauer, S. Spicher,
     C. Bannwarth and S. Grimme, J. Chem. Phys., 2019, 150, 154122.
     DOI: 10.1063/1.5090222
   * E. Caldeweyher, J.-M. Mewes, S. Ehlert and S. Grimme, Phys. Chem. Chem. Phys.
     2020, 22, 8499-8512. DOI: 10.1039/D0CP00502A
   
   for sTDA-xTB:
   * S. Grimme and C. Bannwarth, J. Chem. Phys., 2016, 145, 054103.
     DOI: 10.1063/1.4959605
   
   in the mass-spec context:
   * V. Asgeirsson, C. Bauer and S. Grimme, Chem. Sci., 2017, 8, 4879.
     DOI: 10.1039/c7sc00601b
   * J. Koopman and S. Grimme, ACS Omega 2019, 4, 12, 15120-15133.
     DOI: 10.1021/acsomega.9b02011
   
   for metadynamics refer to:
   * S. Grimme, J. Chem. Theory Comput., 2019, 155, 2847-2862
     DOI: 10.1021/acs.jctc.9b00143
   
   for SPH calculations refer to:
   * S. Spicher and S. Grimme, J. Chem. Theory Comput., 2021, 17, 1701-1714
     DOI: 10.1021/acs.jctc.0c01306
   
   with help from (in alphabetical order)
   P. Atkinson, C. Bannwarth, F. Bohle, G. Brandenburg, E. Caldeweyher
   M. Checinski, S. Dohm, S. Ehlert, S. Ehrlich, I. Gerasimov, J. Koopman
   C. Lavinge, S. Lehtola, F. März, M. Müller, F. Musil, H. Neugebauer
   J. Pisarek, P. Pracht, J. Seibert, P. Shushkov, S. Spicher, M. Stahn
   T. Strunk, J. Stückrath, T. Rose, and J. Unsleber
   
 * started run on 2021/10/08 at 07:30:24.780     

           -------------------------------------------------
          |                Calculation Setup                |
           -------------------------------------------------

          program call               : xtb xtbopt.xyz --sp --alpb thf -P 6
          hostname                   : seskscpg010.prim.scp
          coordinate file            : xtbopt.xyz
          omp threads                :                     6
          number of atoms            :                   103
          number of electrons        :                   274
          charge                     :                     0
          spin                       :                   0.0
          first test random number   :      0.37893946478602

   ID    Z sym.   atoms
    1    7 N      1, 11
    2    6 C      2-6, 10, 12-15, 23, 24, 28, 32, 34, 38, 44, 45, 49, 53, 55,
                  59, 65, 66, 70, 74, 76, 80, 86-89, 91, 93, 95, 98
    3    1 H      7-9, 16-18, 20, 25-27, 29-31, 35-37, 39-41, 46-48, 50-52,
                  56-58, 60-62, 67-69, 71-73, 77-79, 81-85, 92, 94, 97, 99-103
    4   77 Ir     19
    5    5 B      21, 42, 63
    6    8 O      22, 33, 43, 54, 64, 75, 90
    7   35 Br     96

molecular fragmentation (1/2 indicates fragments):
111111111111111111111111111111111111111111111111111111111111111111111111
1111111111111222222222222222222
# atoms in fragment 1/2:    85    18
 fragment masses (1/2) :      730.32      200.05
CMA distance (Bohr)    :   9.352
constraining FC (au)   :  0.0500

           -------------------------------------------------
          |                 G F N 2 - x T B                 |
           -------------------------------------------------

        Reference                      10.1021/acs.jctc.8b01176
      * Hamiltonian:
        H0-scaling (s, p, d)           1.850000    2.230000    2.230000
        zeta-weighting                 0.500000
      * Dispersion:
        s8                             2.700000
        a1                             0.520000
        a2                             5.000000
        s9                             5.000000
      * Repulsion:
        kExp                           1.500000    1.000000
        rExp                           1.000000
      * Coulomb:
        alpha                          2.000000
        third order                    shell-resolved
        anisotropic                    true
        a3                             3.000000
        a5                             4.000000
        cn-shift                       1.200000
        cn-exp                         4.000000
        max-rad                        5.000000

      * Solvation model:               ALPB
        Solvent                        thf
        Parameter file                 internal GFN2-xTB/ALPB
        Dielectric constant                7.6000E+00
        Reference state                gsolv [1 M gas/solution]
        Free energy shift                  5.3248E-03 Eh       3.3414E+00 kcal/mol
        Temperature                        2.9815E+02 K
        Density                            8.8300E-01 kg/L
        Solvent mass                       7.2106E+01 g/mol
        Interaction kernel             P16
        Born radius scaling (c1)           1.7311E+00
        Born radii integrator          GBOBC
        Born offset                        0.0000E+00 a0       0.0000E+00 AA
        H-bond correction              true
        Ion screening                  false
        Surface tension                    1.0000E-05 Eh       1.5569E+01 dyn/cm
        Grid points                               230 per atom
q/qsh data taken from xtbrestart
CAMM data taken from xtbrestart

          ...................................................
          :                      SETUP                      :
          :.................................................:
          :  # basis functions                 265          :
          :  # atomic orbitals                 263          :
          :  # shells                          155          :
          :  # electrons                       274          :
          :  max. iterations                   250          :
          :  Hamiltonian                  GFN2-xTB          :
          :  restarted?                       true          :
          :  GBSA solvation                   true          :
          :  PC potential                    false          :
          :  electronic temp.          300.0000000     K    :
          :  accuracy                    1.0000000          :
          :  -> integral cutoff          0.2500000E+02      :
          :  -> integral neglect         0.1000000E-07      :
          :  -> SCF convergence          0.1000000E-05 Eh   :
          :  -> wf. convergence          0.1000000E-03 e    :
          :  Broyden damping             0.4000000          :
          ...................................................

 iter      E             dE          RMSdq      gap      omega  full diag
   1   -152.2936220 -0.152294E+03  0.651E-05    0.93       0.0  T
   2   -152.2936220  0.128310E-08  0.128E-04    0.93      76.8  T
   3   -152.2936220 -0.152968E-08  0.332E-05    0.93     297.2  T

   *** convergence criteria satisfied after 3 iterations ***

         #    Occupation            Energy/Eh            Energy/eV
      -------------------------------------------------------------
         1        2.0000           -0.8243728             -22.4323
       ...           ...                  ...                  ...
       131        2.0000           -0.3730175             -10.1503
       132        2.0000           -0.3514270              -9.5628
       133        2.0000           -0.3329905              -9.0611
       134        2.0000           -0.3263466              -8.8803
       135        2.0000           -0.3223035              -8.7703
       136        2.0000           -0.3147414              -8.5646
       137        2.0000           -0.3103867              -8.4461 (HOMO)
       138                         -0.2763312              -7.5194 (LUMO)
       139                         -0.2488045              -6.7703
       140                         -0.2462257              -6.7001
       141                         -0.2252455              -6.1292
       142                         -0.2184753              -5.9450
       ...                                ...                  ...
       263                          3.9291989             106.9189
      -------------------------------------------------------------
                  HL-Gap            0.0340556 Eh            0.9267 eV
             Fermi-level           -0.2933541 Eh           -7.9826 eV

 SCC (total)                   0 d,  0 h,  0 min,  0.120 sec
 SCC setup                      ...        0 min,  0.002 sec (  1.827%)
 Dispersion                     ...        0 min,  0.002 sec (  1.486%)
 classical contributions        ...        0 min,  0.000 sec (  0.131%)
 integral evaluation            ...        0 min,  0.034 sec ( 27.947%)
 iterations                     ...        0 min,  0.036 sec ( 29.681%)
 molecular gradient             ...        0 min,  0.046 sec ( 38.375%)
 printout                       ...        0 min,  0.001 sec (  0.506%)

         :::::::::::::::::::::::::::::::::::::::::::::::::::::
         ::                     SUMMARY                     ::
         :::::::::::::::::::::::::::::::::::::::::::::::::::::
         :: total energy            -150.419182029916 Eh    ::
         :: total w/o Gsasa/hb      -150.379001137028 Eh    ::
         :: gradient norm              0.031202141581 Eh/a0 ::
         :: HOMO-LUMO gap              0.926699252034 eV    ::
         ::.................................................::
         :: SCC energy              -152.293622003822 Eh    ::
         :: -> isotropic ES            0.254657496184 Eh    ::
         :: -> anisotropic ES          0.010698718665 Eh    ::
         :: -> anisotropic XC          0.041758039238 Eh    ::
         :: -> dispersion             -0.148423003535 Eh    ::
         :: -> Gsolv                  -0.050976492678 Eh    ::
         ::    -> Gelec               -0.010795599789 Eh    ::
         ::    -> Gsasa               -0.042886554798 Eh    ::
         ::    -> Ghb                 -0.002619153535 Eh    ::
         ::    -> Gshift               0.005324815444 Eh    ::
         :: repulsion energy           1.865055763480 Eh    ::
         :: add. restraining           0.000000000000 Eh    ::
         :: total charge               0.000000000336 e     ::
         :::::::::::::::::::::::::::::::::::::::::::::::::::::

           -------------------------------------------------
          |                Property Printout                |
           -------------------------------------------------

    * Orbital Energies and Occupations

         #    Occupation            Energy/Eh            Energy/eV
      -------------------------------------------------------------
         1        2.0000           -0.8243728             -22.4323
       ...           ...                  ...                  ...
       125        2.0000           -0.4004120             -10.8958
       126        2.0000           -0.3918058             -10.6616
       127        2.0000           -0.3894466             -10.5974
       128        2.0000           -0.3883734             -10.5682
       129        2.0000           -0.3847614             -10.4699
       130        2.0000           -0.3841678             -10.4537
       131        2.0000           -0.3730175             -10.1503
       132        2.0000           -0.3514270              -9.5628
       133        2.0000           -0.3329905              -9.0611
       134        2.0000           -0.3263466              -8.8803
       135        2.0000           -0.3223035              -8.7703
       136        2.0000           -0.3147414              -8.5646
       137        2.0000           -0.3103867              -8.4461 (HOMO)
       138                         -0.2763312              -7.5194 (LUMO)
       139                         -0.2488045              -6.7703
       140                         -0.2462257              -6.7001
       141                         -0.2252455              -6.1292
       142                         -0.2184753              -5.9450
       143                         -0.2051426              -5.5822
       144                         -0.1969658              -5.3597
       145                         -0.1806694              -4.9163
       146                         -0.1523644              -4.1460
       147                         -0.1282140              -3.4889
       148                         -0.1268250              -3.4511
       ...                                ...                  ...
       263                          3.9291989             106.9189
      -------------------------------------------------------------
                  HL-Gap            0.0340556 Eh            0.9267 eV
             Fermi-level           -0.2933541 Eh           -7.9826 eV

     #   Z          covCN         q      C6AA      α(0)
     1   7 N        2.568    -0.109    23.418     7.187
     2   6 C        2.958     0.082    26.172     8.391
     3   6 C        2.918    -0.042    29.038     8.837
     4   6 C        2.924    -0.023    28.578     8.767
     5   6 C        2.915    -0.044    29.088     8.844
     6   6 C        2.894     0.047    26.937     8.509
     7   1 H        0.926     0.052     2.298     2.371
     8   1 H        0.926     0.056     2.251     2.346
     9   1 H        0.926     0.048     2.347     2.396
    10   6 C        2.957     0.077    26.284     8.409
    11   7 N        2.576    -0.115    23.530     7.204
    12   6 C        2.891     0.042    27.064     8.529
    13   6 C        2.915    -0.045    29.119     8.849
    14   6 C        2.922    -0.026    28.656     8.779
    15   6 C        2.919    -0.046    29.138     8.852
    16   1 H        0.926     0.047     2.360     2.403
    17   1 H        0.926     0.051     2.305     2.374
    18   1 H        0.926     0.072     2.066     2.248
    19  77 Ir       5.983    -0.151   387.667    36.410
    20   1 H        0.977     0.106     1.727     2.054
    21   5 B        2.628     0.405    16.005     6.761
    22   8 O        1.638    -0.406    20.974     6.182
    23   6 C        3.834     0.130    18.456     6.112
    24   6 C        3.755    -0.122    22.890     6.822
    25   1 H        0.925     0.053     2.281     2.362
    26   1 H        0.925     0.046     2.369     2.407
    27   1 H        0.925     0.053     2.289     2.366
    28   6 C        3.754    -0.112    22.690     6.792
    29   1 H        0.925     0.049     2.329     2.386
    30   1 H        0.925     0.044     2.393     2.419
    31   1 H        0.925     0.029     2.605     2.524
    32   6 C        3.839     0.131    18.438     6.109
    33   8 O        1.637    -0.403    20.910     6.172
    34   6 C        3.755    -0.123    22.909     6.825
    35   1 H        0.925     0.055     2.256     2.349
    36   1 H        0.925     0.046     2.365     2.405
    37   1 H        0.925     0.049     2.338     2.391
    38   6 C        3.755    -0.120    22.864     6.818
    39   1 H        0.925     0.047     2.356     2.400
    40   1 H        0.925     0.053     2.282     2.363
    41   1 H        0.925     0.047     2.362     2.403
    42   5 B        2.621     0.401    16.088     6.785
    43   8 O        1.637    -0.387    20.600     6.127
    44   6 C        3.835     0.130    18.457     6.112
    45   6 C        3.754    -0.124    22.942     6.830
    46   1 H        0.925     0.055     2.253     2.347
    47   1 H        0.925     0.055     2.254     2.348
    48   1 H        0.925     0.049     2.326     2.385
    49   6 C        3.755    -0.121    22.867     6.819
    50   1 H        0.925     0.049     2.335     2.390
    51   1 H        0.925     0.045     2.378     2.411
    52   1 H        0.925     0.051     2.302     2.372
    53   6 C        3.831     0.128    18.483     6.117
    54   8 O        1.637    -0.384    20.553     6.119
    55   6 C        3.755    -0.124    22.938     6.829
    56   1 H        0.925     0.054     2.267     2.355
    57   1 H        0.925     0.054     2.267     2.354
    58   1 H        0.925     0.049     2.336     2.390
    59   6 C        3.755    -0.119    22.836     6.814
    60   1 H        0.925     0.042     2.427     2.436
    61   1 H        0.925     0.054     2.276     2.359
    62   1 H        0.925     0.049     2.338     2.391
    63   5 B        2.624     0.404    16.040     6.772
    64   8 O        1.638    -0.382    20.507     6.113
    65   6 C        3.830     0.126    18.519     6.123
    66   6 C        3.755    -0.128    23.020     6.841
    67   1 H        0.925     0.057     2.235     2.338
    68   1 H        0.925     0.053     2.277     2.360
    69   1 H        0.925     0.050     2.324     2.384
    70   6 C        3.755    -0.129    23.033     6.843
    71   1 H        0.925     0.060     2.197     2.318
    72   1 H        0.925     0.051     2.313     2.378
    73   1 H        0.925     0.052     2.294     2.369
    74   6 C        3.830     0.128    18.484     6.117
    75   8 O        1.636    -0.381    20.491     6.110
    76   6 C        3.755    -0.124    22.932     6.828
    77   1 H        0.925     0.051     2.303     2.373
    78   1 H        0.925     0.054     2.265     2.353
    79   1 H        0.925     0.054     2.267     2.355
    80   6 C        3.755    -0.122    22.887     6.822
    81   1 H        0.925     0.041     2.442     2.444
    82   1 H        0.925     0.049     2.337     2.391
    83   1 H        0.925     0.055     2.255     2.348
    84   1 H        0.926     0.054     2.271     2.357
    85   1 H        0.926     0.050     2.314     2.379
    86   6 C        2.830    -0.052    29.274     8.866
    87   6 C        2.864     0.139    24.971     8.191
    88   6 C        2.992    -0.047    29.161     8.858
    89   6 C        2.921    -0.076    29.886     8.965
    90   8 O        1.705    -0.283    18.695     5.838
    91   6 C        2.915     0.063    26.593     8.456
    92   1 H        0.926     0.060     2.196     2.317
    93   6 C        2.989    -0.052    29.275     8.876
    94   1 H        0.926     0.042     2.429     2.437
    95   6 C        3.690     0.087    19.319     6.290
    96  35 Br       1.064    -0.203   190.696    22.266
    97   1 H        0.926     0.052     2.293     2.368
    98   6 C        3.751    -0.119    22.836     6.815
    99   1 H        0.923     0.028     2.616     2.529
   100   1 H        0.923     0.033     2.539     2.492
   101   1 H        0.925     0.055     2.253     2.347
   102   1 H        0.925     0.050     2.323     2.383
   103   1 H        0.925     0.062     2.174     2.306

 Mol. C6AA /au·bohr⁶  :     117961.936579
 Mol. C8AA /au·bohr⁸  :    3263398.506854
 Mol. α(0) /au        :        532.531267


Wiberg/Mayer (AO) data.
largest (>0.10) Wiberg bond orders for each atom

 ---------------------------------------------------------------------------
     #   Z sym  total        # sym  WBO       # sym  WBO       # sym  WBO
 ---------------------------------------------------------------------------
     1   7 N    3.415 --     6 C    1.389     2 C    1.311    19 Ir   0.451
     2   6 C    3.978 --     3 C    1.350     1 N    1.311    10 C    1.089
     3   6 C    3.988 --     4 C    1.482     2 C    1.350     9 H    0.961
                             6 C    0.106
     4   6 C    3.985 --     3 C    1.482     5 C    1.384    84 H    0.969
     5   6 C    3.979 --     6 C    1.459     4 C    1.384     8 H    0.969
     6   6 C    3.978 --     5 C    1.459     1 N    1.389     7 H    0.957
                             3 C    0.106
     7   1 H    0.997 --     6 C    0.957
     8   1 H    0.996 --     5 C    0.969
     9   1 H    0.997 --     3 C    0.961
    10   6 C    3.978 --    15 C    1.356    11 N    1.300     2 C    1.089
    11   7 N    3.424 --    12 C    1.384    10 C    1.300    19 Ir   0.451
    12   6 C    3.974 --    13 C    1.457    11 N    1.384    18 H    0.949
                            15 C    0.104
    13   6 C    3.981 --    12 C    1.457    14 C    1.386    17 H    0.969
    14   6 C    3.981 --    15 C    1.474    13 C    1.386    85 H    0.969
    15   6 C    3.988 --    14 C    1.474    10 C    1.356    16 H    0.961
                            12 C    0.104
    16   1 H    0.997 --    15 C    0.961
    17   1 H    0.997 --    13 C    0.969
    18   1 H    0.994 --    12 C    0.949
    19  77 Ir   5.186 --    42 B    0.852    63 B    0.843    21 B    0.728
                            86 C    0.571    20 H    0.541     1 N    0.451
                            11 N    0.451
    20   1 H    0.987 --    19 Ir   0.541    86 C    0.342
    21   5 B    3.284 --    33 O    1.116    22 O    1.096    19 Ir   0.728
    22   8 O    2.196 --    21 B    1.096    23 C    0.941
    23   6 C    3.942 --    24 C    0.996    28 C    0.990    22 O    0.941
                            32 C    0.940
    24   6 C    3.993 --    23 C    0.996    26 H    0.983    27 H    0.983
                            25 H    0.983
    25   1 H    0.997 --    24 C    0.983
    26   1 H    0.997 --    24 C    0.983
    27   1 H    0.997 --    24 C    0.983
    28   6 C    3.996 --    23 C    0.990    31 H    0.985    29 H    0.984
                            30 H    0.984
    29   1 H    0.997 --    28 C    0.984
    30   1 H    0.998 --    28 C    0.984
    31   1 H    0.999 --    28 C    0.985
    32   6 C    3.938 --    38 C    0.997    34 C    0.991    23 C    0.940
                            33 O    0.937
    33   8 O    2.203 --    21 B    1.116    32 C    0.937
    34   6 C    3.993 --    32 C    0.991    36 H    0.983    37 H    0.982
                            35 H    0.979
    35   1 H    0.997 --    34 C    0.979
    36   1 H    0.997 --    34 C    0.983
    37   1 H    0.997 --    34 C    0.982
    38   6 C    3.994 --    32 C    0.997    41 H    0.984    39 H    0.983
                            40 H    0.983
    39   1 H    0.998 --    38 C    0.983
    40   1 H    0.997 --    38 C    0.983
    41   1 H    0.997 --    38 C    0.984
    42   5 B    3.331 --    54 O    1.114    43 O    1.112    19 Ir   0.852
    43   8 O    2.223 --    42 B    1.112    44 C    0.935
    44   6 C    3.936 --    45 C    0.997    49 C    0.991    53 C    0.939
                            43 O    0.935
    45   6 C    3.992 --    44 C    0.997    48 H    0.983    46 H    0.982
                            47 H    0.982
    46   1 H    0.997 --    45 C    0.982
    47   1 H    0.997 --    45 C    0.982
    48   1 H    0.996 --    45 C    0.983
    49   6 C    3.994 --    44 C    0.991    50 H    0.983    51 H    0.982
                            52 H    0.980
    50   1 H    0.997 --    49 C    0.983
    51   1 H    0.998 --    49 C    0.982
    52   1 H    0.997 --    49 C    0.980
    53   6 C    3.937 --    55 C    0.996    59 C    0.992    44 C    0.939
                            54 O    0.933
    54   8 O    2.227 --    42 B    1.114    53 C    0.933
    55   6 C    3.993 --    53 C    0.996    58 H    0.983    57 H    0.983
                            56 H    0.982
    56   1 H    0.997 --    55 C    0.982
    57   1 H    0.997 --    55 C    0.983
    58   1 H    0.996 --    55 C    0.983
    59   6 C    3.994 --    53 C    0.992    62 H    0.983    61 H    0.983
                            60 H    0.982
    60   1 H    0.998 --    59 C    0.982
    61   1 H    0.996 --    59 C    0.983
    62   1 H    0.997 --    59 C    0.983
    63   5 B    3.360 --    75 O    1.122    64 O    1.104    19 Ir   0.843
    64   8 O    2.224 --    63 B    1.104    65 C    0.937
    65   6 C    3.937 --    70 C    0.996    66 C    0.991    74 C    0.939
                            64 O    0.937
    66   6 C    3.992 --    65 C    0.991    69 H    0.983    68 H    0.983
                            67 H    0.979
    67   1 H    0.997 --    66 C    0.979
    68   1 H    0.997 --    66 C    0.983
    69   1 H    0.996 --    66 C    0.983
    70   6 C    3.992 --    65 C    0.996    72 H    0.983    73 H    0.982
                            71 H    0.982
    71   1 H    0.996 --    70 C    0.982
    72   1 H    0.996 --    70 C    0.983
    73   1 H    0.997 --    70 C    0.982
    74   6 C    3.934 --    76 C    0.997    80 C    0.991    65 C    0.939
                            75 O    0.934
    75   8 O    2.233 --    63 B    1.122    74 C    0.934
    76   6 C    3.992 --    74 C    0.997    77 H    0.983    78 H    0.982
                            79 H    0.981
    77   1 H    0.996 --    76 C    0.983
    78   1 H    0.997 --    76 C    0.982
    79   1 H    0.997 --    76 C    0.981
    80   6 C    3.995 --    74 C    0.991    81 H    0.984    83 H    0.983
                            82 H    0.983
    81   1 H    0.998 --    80 C    0.984
    82   1 H    0.997 --    80 C    0.983
    83   1 H    0.996 --    80 C    0.983
    84   1 H    0.996 --     4 C    0.969
    85   1 H    0.996 --    14 C    0.969
    86   6 C    3.935 --    88 C    1.402    87 C    1.300    19 Ir   0.571
                            20 H    0.342
    87   6 C    3.931 --    89 C    1.379    86 C    1.300    90 O    1.052
    88   6 C    3.987 --    91 C    1.404    86 C    1.402    92 H    0.958
    89   6 C    3.982 --    93 C    1.419    87 C    1.379    94 H    0.962
    90   8 O    2.233 --    87 C    1.052    95 C    0.963
    91   6 C    3.922 --    93 C    1.413    88 C    1.404    96 Br   0.949
    92   1 H    0.995 --    88 C    0.958
    93   6 C    3.984 --    89 C    1.419    91 C    1.413    97 H    0.969
    94   1 H    0.997 --    89 C    0.962
    95   6 C    3.945 --    98 C    1.015    99 H    0.968   100 H    0.968
                            90 O    0.963
    96  35 Br   1.069 --    91 C    0.949
    97   1 H    0.996 --    93 C    0.969
    98   6 C    3.991 --    95 C    1.015   101 H    0.985   102 H    0.983
                           103 H    0.983
    99   1 H    0.999 --    95 C    0.968
   100   1 H    0.999 --    95 C    0.968
   101   1 H    0.997 --    98 C    0.985
   102   1 H    0.997 --    98 C    0.983
   103   1 H    0.995 --    98 C    0.983
 ---------------------------------------------------------------------------

Topologies differ in total number of bonds
Writing topology from bond orders to xtbtopo.mol

molecular dipole:
                 x           y           z       tot (Debye)
 q only:       -1.163       0.207      -2.228
   full:       -2.707       0.378      -2.994      10.304
molecular quadrupole (traceless):
                xx          xy          yy          xz          yz          zz
 q only:       23.771       9.552       6.906     -16.626      14.522     -30.677
  q+dip:       25.435      11.357      14.241     -31.416      17.220     -39.675
   full:       24.316      13.035      15.323     -32.619      14.921     -39.638


           -------------------------------------------------
          | TOTAL ENERGY             -150.419182029916 Eh   |
          | GRADIENT NORM               0.031202141581 Eh/α |
          | HOMO-LUMO GAP               0.926699252034 eV   |
           -------------------------------------------------

------------------------------------------------------------------------
 * finished run on 2021/10/08 at 07:30:24.953     
------------------------------------------------------------------------
 total:
 * wall-time:     0 d,  0 h,  0 min,  0.173 sec
 *  cpu-time:     0 d,  0 h,  0 min,  0.990 sec
 * ratio c/w:     5.734 speedup
 SCF:
 * wall-time:     0 d,  0 h,  0 min,  0.122 sec
 *  cpu-time:     0 d,  0 h,  0 min,  0.726 sec
 * ratio c/w:     5.964 speedup

