103
 energy: -150.355331051224 gnorm: 0.091646082414 xtb: 6.4.0 (f63f532)
N        -0.96510000000000   -2.11530000000000   -0.24090000000000
C        -2.24700000000000   -1.69840000000000   -0.36220000000000
C        -3.14040000000000   -2.36820000000000   -1.21200000000000
C        -2.70220000000000   -3.47560000000000   -1.93050000000000
C        -1.37780000000000   -3.89880000000000   -1.78760000000000
C        -0.54290000000000   -3.18670000000000   -0.93510000000000
H         0.49810000000000   -3.45630000000000   -0.78940000000000
H        -0.99570000000000   -4.76030000000000   -2.32770000000000
H        -4.16500000000000   -2.02890000000000   -1.31830000000000
C        -2.62130000000000   -0.50950000000000    0.44100000000000
N        -1.62600000000000    0.07330000000000    1.16020000000000
C        -1.89680000000000    1.15240000000000    1.91690000000000
C        -3.17230000000000    1.70330000000000    1.99650000000000
C        -4.20510000000000    1.11740000000000    1.26270000000000
C        -3.92610000000000    0.00250000000000    0.47820000000000
H        -4.71960000000000   -0.46420000000000   -0.09520000000000
H        -3.34630000000000    2.57510000000000    2.62070000000000
H        -1.04450000000000    1.57420000000000    2.43690000000000
Ir        0.42150000000000   -0.81650000000000    0.91330000000000
H         0.87260000000000   -2.23030000000000    1.54050000000000
B         0.50670000000000    0.41560000000000   -0.81540000000000
O         0.19500000000000   -0.04700000000000   -2.09150000000000
C         0.00650000000000    1.10040000000000   -2.95430000000000
C         0.49020000000000    0.74740000000000   -4.35780000000000
H         1.51610000000000    0.37380000000000   -4.33700000000000
H         0.44730000000000    1.62240000000000   -5.01670000000000
H        -0.14740000000000   -0.03390000000000   -4.78430000000000
C        -1.50120000000000    1.39560000000000   -2.96670000000000
H        -1.75370000000000    2.21460000000000   -3.64850000000000
H        -2.03200000000000    0.49450000000000   -3.28930000000000
H        -1.85170000000000    1.65210000000000   -1.96220000000000
C         0.84230000000000    2.20670000000000   -2.22040000000000
O         0.75200000000000    1.78260000000000   -0.83690000000000
C         2.32930000000000    2.18620000000000   -2.59900000000000
H         2.74130000000000    1.18500000000000   -2.45750000000000
H         2.48870000000000    2.51300000000000   -3.63180000000000
H         2.87200000000000    2.86270000000000   -1.93200000000000
C         0.28440000000000    3.62290000000000   -2.33660000000000
H        -0.72650000000000    3.69040000000000   -1.92910000000000
H         0.92130000000000    4.31480000000000   -1.77610000000000
H         0.26430000000000    3.94810000000000   -3.38320000000000
B         1.56300000000000    0.60960000000000    1.84840000000000
O         2.92780000000000    0.55230000000000    2.15020000000000
C         3.36330000000000    1.88660000000000    2.50260000000000
C         4.53140000000000    1.78590000000000    3.47740000000000
H         4.27910000000000    1.16090000000000    4.33690000000000
H         5.39390000000000    1.33790000000000    2.97340000000000
H         4.82390000000000    2.77870000000000    3.83820000000000
C         3.79700000000000    2.56850000000000    1.19670000000000
H         4.20020000000000    3.57090000000000    1.37680000000000
H         4.56740000000000    1.95560000000000    0.72110000000000
H         2.95240000000000    2.63260000000000    0.50540000000000
C         2.05040000000000    2.50090000000000    3.09320000000000
O         1.03750000000000    1.81620000000000    2.31910000000000
C         1.89100000000000    4.00450000000000    2.88650000000000
H         1.87290000000000    4.25440000000000    1.82410000000000
H         0.94940000000000    4.34260000000000    3.33170000000000
H         2.71080000000000    4.55150000000000    3.36630000000000
C         1.82470000000000    2.13200000000000    4.56520000000000
H         1.92610000000000    1.05330000000000    4.71320000000000
H         2.52610000000000    2.65280000000000    5.22540000000000
H         0.80630000000000    2.41580000000000    4.84900000000000
B         2.27820000000000   -1.33090000000000    0.17410000000000
O         2.89460000000000   -2.57740000000000    0.38450000000000
C         4.26930000000000   -2.48200000000000   -0.07210000000000
C         5.10900000000000   -2.05380000000000    1.14010000000000
H         4.76350000000000   -1.08740000000000    1.51750000000000
H         4.98050000000000   -2.79470000000000    1.93590000000000
H         6.17420000000000   -1.99290000000000    0.89300000000000
C         4.71950000000000   -3.84660000000000   -0.58470000000000
H         4.75280000000000   -4.56130000000000    0.24420000000000
H         5.72330000000000   -3.78370000000000   -1.02010000000000
H         4.03500000000000   -4.23600000000000   -1.34170000000000
C         4.16440000000000   -1.36220000000000   -1.16300000000000
O         3.08520000000000   -0.55030000000000   -0.65400000000000
C         5.40720000000000   -0.48870000000000   -1.31550000000000
H         6.27320000000000   -1.09010000000000   -1.61530000000000
H         5.23300000000000    0.26930000000000   -2.08590000000000
H         5.64270000000000    0.02650000000000   -0.38240000000000
C         3.71800000000000   -1.89830000000000   -2.53110000000000
H         2.82530000000000   -2.52160000000000   -2.42740000000000
H         3.46090000000000   -1.05250000000000   -3.17550000000000
H         4.50570000000000   -2.48290000000000   -3.01790000000000
H        -3.38500000000000   -4.00130000000000   -2.59310000000000
H        -5.21400000000000    1.52080000000000    1.29960000000000
C         0.23590000000000   -1.68140000000000    2.96030000000000
C        -1.14725430231498   -1.95270844406442    3.29169029820639
C         1.11719466745487   -2.08483230633367    3.96444149344601
C        -1.52594349631847   -2.40421266542009    4.55393689062254
O        -2.23677823279581   -1.93423440685779    2.42677304994405
C         0.71242710833545   -2.61279355767999    5.18559252355072
H         2.17613515902637   -2.02306221705889    3.75599915219295
C        -0.61875605006144   -2.75661178481779    5.52750933083851
H        -2.56999979540283   -2.59950393195028    4.75913681317018
C        -3.53173812249585   -1.47634627469336    2.86849530593998
Br        1.98579874335367   -3.30011162492137    6.41466895669317
H        -0.97162371451903   -3.17893493380265    6.45803086712609
C        -4.71924538440683   -1.95390607216255    2.02691720912081
H        -3.50249778896367   -0.38292278854789    2.88729980654109
H        -3.76822701714027   -1.76487813845299    3.89415247719102
H        -5.25350847394117   -2.77627967117606    2.50045510500701
H        -4.41959916947435   -2.28538235394409    1.03599386580881
H        -5.43167954482439   -1.13317679143777    1.91885070136674
103
 energy: -150.374506669708 gnorm: 0.063240585738 xtb: 6.4.0 (f63f532)
N        -0.95912010771119   -2.08596682304760   -0.26680080248913
C        -2.22957511215360   -1.65882519448812   -0.39772698028167
C        -3.12943659218807   -2.35048897871809   -1.22035697872339
C        -2.70279073260591   -3.46337295094389   -1.92375805400832
C        -1.38444963115611   -3.88427739328404   -1.78133090197342
C        -0.55589365646975   -3.16772491034757   -0.93809791325009
H         0.47851040902407   -3.44842419311148   -0.78820497705440
H        -1.00703584025916   -4.74517683301811   -2.31609830492795
H        -4.15029810131094   -2.01546595004583   -1.33073004996256
C        -2.58662325789751   -0.43536285125948    0.34885160639230
N        -1.60239448902239    0.13327046372744    1.08049991809626
C        -1.88922201124484    1.17782290541810    1.86033942778374
C        -3.15999536469211    1.72716527666690    1.95316919028758
C        -4.18067683756952    1.16897593050624    1.19119101671972
C        -3.88378618584062    0.09102382179507    0.37159240838265
H        -4.68384377081778   -0.39578666301851   -0.16517093840698
H        -3.34414922846062    2.56375498486065    2.61480919455433
H        -1.05393806136656    1.57015535855587    2.42414812282875
Ir        0.42150000000006   -0.81650000000000    0.91329999999997
H         0.87260000000000   -2.23029999999999    1.54050000000000
B         0.49852930847223    0.41763051643972   -0.79829448603178
O         0.18326177971927   -0.03700418712510   -2.07216478173491
C         0.01492138145113    1.09813146195816   -2.94850793099594
C         0.49480616078776    0.74948505976312   -4.35382221668981
H         1.51417919005974    0.37337038429823   -4.33144325326025
H         0.45073076517767    1.62429323345103   -5.00327676356019
H        -0.14278436079485   -0.02724391774444   -4.77506927206275
C        -1.49062231922428    1.39953628408264   -2.97143701765139
H        -1.73275464899374    2.21341404150864   -3.65337464537124
H        -2.02086744094178    0.50254665533946   -3.29183260861995
H        -1.83769299697454    1.65297475385558   -1.96933179376625
C         0.83887764546610    2.20584371264909   -2.21446604747629
O         0.75899125024879    1.77454553375872   -0.83820257461120
C         2.32336105299826    2.18922753948224   -2.59828942786756
H         2.72856249125112    1.18995628099610   -2.45033407924946
H         2.47896911852971    2.51272247209838   -3.62685965267157
H         2.86510367487286    2.86218812559777   -1.93429999631950
C         0.28719564033205    3.62302182576449   -2.33833427741362
H        -0.71727862223948    3.69116982080126   -1.92830531870864
H         0.92498068664100    4.30673497280042   -1.77916606122396
H         0.27068602509852    3.93935628729923   -3.38150204400905
B         1.56466875689014    0.61165707245798    1.86405677970986
O         2.92424719092362    0.56005338311716    2.14479805120514
C         3.36303818892730    1.88365994751222    2.51126508492700
C         4.53203897979662    1.78589449314210    3.48346961753688
H         4.27889844774439    1.15898460552555    4.33467594695988
H         5.38717510510125    1.33941481338395    2.97756123954124
H         4.81664327822243    2.77576550898982    3.83939658281090
C         3.79912615394537    2.56896532613263    1.21037692846869
H         4.20139715354751    3.56477669307764    1.39260014151083
H         4.56363936336921    1.95700335918767    0.73431658901354
H         2.95294016932408    2.62339434514203    0.52631146260604
C         2.05264876241360    2.50312693097375    3.09148000106857
O         1.04119907158008    1.80769246159840    2.33573082431091
C         1.89371044432777    4.00563719606059    2.89017896380191
H         1.87151659766203    4.24936350161892    1.83165054976281
H         0.95523189688122    4.33612091460719    3.33421756936717
H         2.71273601660991    4.54264490154568    3.36812782763270
C         1.82715448275314    2.13719216630402    4.56364719976341
H         1.92901302369904    1.06124362324153    4.70284051910046
H         2.52662195271623    2.65619947430673    5.21654151737994
H         0.81199558046762    2.41604009809032    4.84680513609351
B         2.27820000000041   -1.33089999999992    0.17410000000017
O         2.89916893579663   -2.56272065647610    0.39131287673708
C         4.26565376491681   -2.48486938313323   -0.07392715913610
C         5.10817734392834   -2.06017943204426    1.13471868853633
H         4.75406641135399   -1.09960797236080    1.50756601208060
H         4.97674579455839   -2.79593639376969    1.92772554827198
H         6.16677302563893   -2.00055619172429    0.88631895381252
C         4.71938164435407   -3.84799586186381   -0.58397324696806
H         4.74790247626644   -4.55407518997190    0.24497505007095
H         5.71787467055226   -3.77849878026504   -1.01501226503253
H         4.03462421054058   -4.23444370668214   -1.33444654915070
C         4.16718896732768   -1.36222603046048   -1.15585636684694
O         3.07648987537687   -0.56353841996081   -0.65872375096026
C         5.41087059663381   -0.49337550235407   -1.31207372222648
H         6.26786634203303   -1.09791064638507   -1.60818523982285
H         5.23341511886353    0.25924342715320   -2.07939125491005
H         5.63899690280378    0.02001479760799   -0.38222862103870
C         3.72742186923125   -1.90003680760877   -2.52476750862590
H         2.83469856382234   -2.51525648554472   -2.41774680615838
H         3.47063161726819   -1.05778047007014   -3.16627104119199
H         4.51542441015863   -2.47830500500505   -3.00461506581145
H        -3.38166974311513   -3.98921847866565   -2.58239833907631
H        -5.19772551542698    1.53432890625317    1.27460398563735
C         0.23589999999985   -1.68140000000001    2.96030000000001
C        -1.14533999967582   -1.96952095067309    3.30992217185878
C         1.13431789122689   -2.07045600006580    3.95825827215352
C        -1.49857600222611   -2.42065826745029    4.57688717430196
O        -2.23339985664243   -1.95432792183974    2.43839113665649
C         0.74665143318206   -2.59805140181050    5.18450186314538
H         2.19025915378345   -1.99770943625686    3.74455644427016
C        -0.57752048175690   -2.75564542938895    5.53728930132705
H        -2.53496142790676   -2.62456550051051    4.79413141109600
C        -3.52483889051068   -1.50472143512008    2.89939952051382
Br        2.04178210521962   -3.26938624641329    6.41116958704818
H        -0.91370759018725   -3.17700788629210    6.47204306004895
C        -4.70904764199573   -1.99934633299995    2.05680184400985
H        -3.49759567736093   -0.41328460817550    2.91978871152602
H        -3.74544199553886   -1.79768803851912    3.92459931952566
H        -5.22669757376529   -2.82581248708125    2.53494114347883
H        -4.40444752519929   -2.32992712465570    1.06995876926706
H        -5.42892402986312   -1.18730573382814    1.95165482507766
103
 energy: -150.384793889735 gnorm: 0.051629635885 xtb: 6.4.0 (f63f532)
N        -0.94762720586500   -2.05263915739553   -0.29616909736811
C        -2.20755587101203   -1.61271536274374   -0.44121670212607
C        -3.11503158122479   -2.31516876976789   -1.24534375551022
C        -2.70358637022859   -3.44169647815595   -1.92756271716559
C        -1.38903794645439   -3.86682786515903   -1.78143303856294
C        -0.56227106093219   -3.14527337659947   -0.94695156325792
H         0.46443574722682   -3.44341712469287   -0.78749735265420
H        -1.01919595716989   -4.73381238058089   -2.30455652232829
H        -4.13614542832203   -1.98701991741959   -1.34862325597688
C        -2.56223270899317   -0.39976827465804    0.30229302472278
N        -1.58358533613906    0.16114951063984    1.03908232628119
C        -1.87689659716858    1.19989160215814    1.80969639902426
C        -3.14311760951759    1.75069852389119    1.90652643152660
C        -4.16066799190804    1.19792967433514    1.13977125256660
C        -3.85826886748869    0.12656222842923    0.32199760060865
H        -4.64674120852111   -0.33268194427602   -0.24655428562049
H        -3.33456489593268    2.56224593120883    2.59278978569980
H        -1.05469944289487    1.58052765341312    2.39728638391595
Ir        0.42150000000010   -0.81650000000000    0.91329999999995
H         0.87260000000001   -2.23029999999999    1.54050000000000
B         0.50892253947128    0.42124849341903   -0.78332245690053
O         0.17306015563804   -0.02899094770496   -2.05112434871010
C         0.02114745566084    1.09563117442138   -2.93585564184301
C         0.50349899282185    0.74764193435829   -4.34095431307705
H         1.51885170089264    0.36893201866400   -4.32011485837161
H         0.45833910697358    1.62601906687978   -4.97907189039898
H        -0.13693786752129   -0.02278847270150   -4.76124540284374
C        -1.48252279919076    1.40612004751699   -2.97530041857328
H        -1.70820358343869    2.21719455709700   -3.66007468846556
H        -2.01188649078499    0.51211670218088   -3.29705078379484
H        -1.82936421516827    1.65963120883872   -1.97587303151317
C         0.83980206003334    2.20379231481527   -2.20386958890357
O         0.77011929931533    1.77130504104263   -0.83403322929000
C         2.32220007599482    2.19204389423678   -2.59500204033741
H         2.72191666586531    1.19354413135529   -2.44133672785685
H         2.46878510906211    2.51134604213438   -3.62227770310390
H         2.86231757568337    2.86576047795673   -1.93497791472526
C         0.28928007468896    3.62105820872836   -2.33478011542697
H        -0.71151777284207    3.69408950342040   -1.92397484030810
H         0.93099794222293    4.29994609448197   -1.78048679521064
H         0.27726193246171    3.92439243167324   -3.37775394314828
B         1.56885188725446    0.61280385975948    1.87875803905275
O         2.92197771416245    0.56525329049748    2.14262514883555
C         3.36202317558465    1.87958673640478    2.52045130523851
C         4.52983522852550    1.78272218906541    3.49432370868105
H         4.27785768659714    1.15310201295346    4.34004808227849
H         5.38082249627800    1.34015385272847    2.98512148677732
H         4.80584499367996    2.77185243816408    3.84619308914299
C         3.80310098468535    2.57063403189378    1.22513366337216
H         4.20329701134475    3.56173024409998    1.41295571890075
H         4.56497055847533    1.95905434320942    0.75021791813146
H         2.95496013640452    2.61783918521907    0.54660852035336
C         2.05295606173968    2.50067385518533    3.09442897986398
O         1.04438214253105    1.79682332424395    2.35253386215535
C         1.89654973825318    4.00307326988431    2.89274504248040
H         1.87054773851540    4.24457147480897    1.83667177960020
H         0.96142599661136    4.32883157376521    3.33896531744037
H         2.71696684237112    4.53041378474457    3.36954747271361
C         1.83203472149848    2.14182011359271    4.56940457874003
H         1.93500273194236    1.06722338152910    4.70011722285854
H         2.53151199375223    2.66202634766565    5.21446912367335
H         0.81823476708686    2.41746748504598    4.84977824223897
B         2.27820000000072   -1.33089999999986    0.17410000000030
O         2.89991431231694   -2.55007160334166    0.40121720601134
C         4.25820904772963   -2.48612071207156   -0.07095514563341
C         5.10820439789895   -2.06673172848336    1.13327288608186
H         4.74736174826934   -1.10988882538734    1.50239013597244
H         4.97429159875275   -2.80101335675912    1.92298150538026
H         6.16143264300832   -2.00877678791092    0.87985167872081
C         4.71226537332082   -3.84906511842348   -0.58189617772588
H         4.73950364231018   -4.54818685417022    0.24837912097913
H         5.70756512257193   -3.77129841911676   -1.00860775505719
H         4.02876502666358   -4.23545567333549   -1.32901443753782
C         4.16571731412958   -1.36376702156899   -1.14907818454699
O         3.06667728131676   -0.57427681159252   -0.66354423370685
C         5.41174307855729   -0.49856431243584   -1.30237899435620
H         6.25992414986457   -1.11022796666951   -1.59404584031407
H         5.23505851940589    0.24838224604851   -2.07061870443687
H         5.63603071028793    0.01473123627761   -0.37503538289460
C         3.73825945804599   -1.90391677076106   -2.52122334207394
H         2.84540809914658   -2.51371395329815   -2.41157324192528
H         3.48488244108408   -1.06267797610226   -3.16102335348240
H         4.53027851037731   -2.47805644986990   -2.99004294774172
H        -3.38633303913572   -3.97702910834893   -2.56933706645616
H        -5.17267291015751    1.56369103246068    1.21791091191161
C         0.23589999999974   -1.68140000000001    2.96030000000001
C        -1.13697244554106   -1.98206517351526    3.32975740111602
C         1.16198736449715   -2.04666860083395    3.94445609519707
C        -1.45847980366764   -2.44439944221402    4.60047912294692
O        -2.21307683329898   -1.94713534397973    2.44039917780475
C         0.80239246539476   -2.57282274720212    5.17854297754220
H         2.21342742397632   -1.95156392526052    3.71854124733346
C        -0.51297992519839   -2.75529661054510    5.54663572047635
H        -2.48581117300432   -2.66282933111765    4.83964031241162
C        -3.50305571438291   -1.50619512498454    2.90817974575966
Br        2.13526121896583   -3.20664706447330    6.39778724072004
H        -0.82197407220938   -3.17314354184885    6.49190894374340
C        -4.67619921906163   -2.02772649089442    2.06540165763777
H        -3.49093729781280   -0.41286907670592    2.91623342500429
H        -3.70825264116650   -1.81162245651643    3.93397317087528
H        -5.16863484739069   -2.86653924833770    2.55112842376049
H        -4.35451241478042   -2.34996239476198    1.08321840786231
H        -5.40896674344382   -1.23028504862398    1.95676707445375
103
 energy: -150.392621902227 gnorm: 0.045568335769 xtb: 6.4.0 (f63f532)
N        -0.93492848117825   -2.02963245616293   -0.31650885200582
C        -2.18899781821533   -1.57650102531777   -0.47699283127451
C        -3.10244617232737   -2.27762990926378   -1.27548286192466
C        -2.70396799180472   -3.41877754361544   -1.93956206653037
C        -1.39082813945997   -3.85313749457470   -1.78724861370595
C        -0.56032912285738   -3.12972736802218   -0.95755623084381
H         0.46075938519833   -3.44352466829108   -0.78960120542920
H        -1.03021328943181   -4.73277438005721   -2.29445199012910
H        -4.12119273358618   -1.94278177594559   -1.38028796270531
C        -2.53717409113198   -0.36081235824845    0.25245052330222
N        -1.56405587575505    0.18502313704260    1.00970979238843
C        -1.86229738050076    1.22302904659795    1.77740521478473
C        -3.12670773072483    1.77821988180910    1.86607185486019
C        -4.13898918697170    1.23915487331636    1.07759326483813
C        -3.83034230359782    0.17580885942749    0.25339153486477
H        -4.61175174849141   -0.27046764060291   -0.33730530876441
H        -3.32184731832817    2.57926240124633    2.55966777463002
H        -1.04631565700867    1.60958394069049    2.36600894587217
Ir        0.42150000000015   -0.81650000000000    0.91329999999992
H         0.87260000000001   -2.23029999999998    1.54049999999999
B         0.51131306789990    0.43063275667454   -0.76994453969439
O         0.16486387221436   -0.02295760365692   -2.03364763753917
C         0.02486272642272    1.09509592704106   -2.92156658036476
C         0.51423078248892    0.74324137907312   -4.32433349601902
H         1.52818323057010    0.36074302985402   -4.30327218820904
H         0.47191262443300    1.62584102293632   -4.95639543180166
H        -0.13006743826661   -0.02235118750380   -4.74756714517962
C        -1.47744260195813    1.41461594350697   -2.97804775052426
H        -1.68637471762298    2.22561741058048   -3.66763749539638
H        -2.00725882030648    0.52255115080830   -3.30418981080802
H        -1.83100733444056    1.67238103841838   -1.98230106447301
C         0.84449654206598    2.20333928892161   -2.19101902602003
O         0.78316984284029    1.77550479079891   -0.82376183446167
C         2.32554081151620    2.19391897211240   -2.59016269902633
H         2.72474103382813    1.19584818810605   -2.43280818036637
H         2.46295197020683    2.50883799035440   -3.61954334202552
H         2.86546545972031    2.87233838405684   -1.93506176174406
C         0.29259964991651    3.62049918761313   -2.32729863601286
H        -0.70778655374727    3.69880644849169   -1.91648519221545
H         0.93824652363948    4.30062506972603   -1.77927504047578
H         0.28167687376239    3.91233979910803   -3.37327228308700
B         1.57244909084323    0.60955529711793    1.89155515871900
O         2.92305618929754    0.56466004017291    2.14286054378378
C         3.36191790781500    1.87425938043746    2.52886803070735
C         4.52754890815033    1.77662841507646    3.50685107348089
H         4.27695875611961    1.14383507298591    4.35058876256944
H         5.38013178856655    1.33922261503362    2.99588860065970
H         4.79685533035209    2.76696536729151    3.85957796171661
C         3.80801660006726    2.57241575471249    1.23824975336181
H         4.20562046395586    3.56249304179409    1.43343288994022
H         4.57201262015996    1.96248184151237    0.76465033326262
H         2.95995872655521    2.61885802430606    0.55985166832696
C         2.05285743730414    2.49510723060822    3.10214019511132
O         1.04545189515243    1.78616981891331    2.36877511835153
C         1.89777305531583    3.99802232791454    2.89559923084510
H         1.86860136069502    4.23950607940599    1.83948534487165
H         0.96517023053624    4.32481562572592    3.34613544018546
H         2.72201074945155    4.52087342990238    3.37007674201377
C         1.83792201578216    2.14440836624790    4.58094452266325
H         1.94267800393797    1.07006086388288    4.71079239710542
H         2.53948064354913    2.66879231018809    5.21958327371487
H         0.82404880654674    2.41967852509354    4.86045988416713
B         2.27820000000108   -1.33089999999978    0.17410000000045
O         2.89804315766308   -2.54390373374503    0.41282050433904
C         4.25064620023683   -2.48709173423255   -0.06487013959221
C         5.10884283250389   -2.07196147746223    1.13600231747150
H         4.74787054619523   -1.11554378691103    1.50569666425477
H         4.97520432789483   -2.80821243219701    1.92377652590795
H         6.15996110522753   -2.01568292492541    0.87613366412043
C         4.70123971690359   -3.85159878527027   -0.57801089560534
H         4.72978275033428   -4.54872464015839    0.25370822268256
H         5.69624566960941   -3.76902091569111   -1.00371005477538
H         4.01825638861472   -4.23890935392102   -1.32509222768488
C         4.16273904477480   -1.36636322358899   -1.14453763729853
O         3.05923222416032   -0.57958834749527   -0.66953648290823
C         5.41117204329150   -0.50240688461600   -1.29038385446749
H         6.25586527029827   -1.12130148878875   -1.57625026206281
H         5.23998720767808    0.24145237738150   -2.06265036428244
H         5.63335756614791    0.01233001303510   -0.36336750298128
C         3.74843694475277   -1.90892413591615   -2.52060206792917
H         2.85506856350120   -2.51800689112587   -2.41400800206696
H         3.50129863531255   -1.06735743421069   -3.16239378825975
H         4.54658476221793   -2.48266869477675   -2.97823911883135
H        -3.39505863304458   -3.96422089643568   -2.56355303262336
H        -5.14957245439575    1.60806775595026    1.14653975646508
C         0.23589999999960   -1.68140000000000    2.96030000000002
C        -1.12069168255403   -1.99522582490504    3.34957980193056
C         1.19370022763544   -2.01530798794167    3.92580980683190
C        -1.41569640967073   -2.46890266266404    4.62161413139781
O        -2.18310086220891   -1.93699764310586    2.44985542843577
C         0.86497612323795   -2.53938759513060    5.16791658342630
H         2.23912072879368   -1.89431771014822    3.68034710657511
C        -0.44142374206302   -2.75356726570660    5.55318744604826
H        -2.43583669687454   -2.70337459987563    4.88433856969129
C        -3.47265189982109   -1.51458035121650    2.92426596245320
Br        2.24112328713226   -3.11804156758407    6.37649049074216
H        -0.71815668292970   -3.16950505681757    6.51041854842630
C        -4.63243117648701   -2.05990293416824    2.07742889787409
H        -3.47987294282026   -0.42002415890807    2.92240405078257
H        -3.65580356907973   -1.82499844720641    3.95354621158944
H        -5.10039358685255   -2.91532410999382    2.56070274867874
H        -4.29208425201428   -2.36872079264613    1.09658294816633
H        -5.38586724742674   -1.28296048053535    1.96457301163855
103
 energy: -150.398779515636 gnorm: 0.038973514339 xtb: 6.4.0 (f63f532)
N        -0.92271541582738   -2.01445496391563   -0.33233506379058
C        -2.17235984002847   -1.54831805942071   -0.50793119774873
C        -3.08921726037094   -2.24309115865555   -1.30798977075700
C        -2.70276568068386   -3.39843554898272   -1.95390000586520
C        -1.39314099272313   -3.84469360012981   -1.79230633558489
C        -0.55666662889598   -3.12224455086743   -0.96663846529142
H         0.46096789780795   -3.44522708803977   -0.79575552105588
H        -1.04077677989926   -4.73461831044142   -2.28759998406314
H        -4.10261771138888   -1.89343711554758   -1.42170297198182
C        -2.51590306150826   -0.33180800182270    0.21575174865881
N        -1.54633062929337    0.20361110320258    0.98806550822989
C        -1.84566342400619    1.25097473976832    1.74579784560575
C        -3.10903408028175    1.80975862407967    1.82251204744927
C        -4.11619495392059    1.28036065574192    1.01921053594215
C        -3.80389938161566    0.22031838435375    0.19423398498347
H        -4.57549842713042   -0.20700461354618   -0.42635410274101
H        -3.30817330860111    2.60685546000743    2.51828761599965
H        -1.03448018956092    1.63699538879786    2.34323952121141
Ir        0.42150000000020   -0.81650000000000    0.91329999999990
H         0.87260000000001   -2.23029999999998    1.54049999999999
B         0.51982043866415    0.43940506577985   -0.75774890957885
O         0.15917117488427   -0.01637785958888   -2.01723608013829
C         0.02842527436476    1.09714278412091   -2.90764828127849
C         0.52414529063438    0.73892037185814   -4.30716467657591
H         1.53619872372689    0.35032086932228   -4.28075020873279
H         0.49013147305178    1.62200805240556   -4.94036172435409
H        -0.12279158440712   -0.02373615318700   -4.73331045636134
C        -1.47195245819994    1.42507985023423   -2.97915242720698
H        -1.66734578185857    2.23591751112249   -3.67381177892849
H        -2.00362855626339    0.53530792107227   -3.30992499567598