      -----------------------------------------------------------      
     |                   =====================                   |     
     |                           x T B                           |     
     |                   =====================                   |     
     |                         S. Grimme                         |     
     |          Mulliken Center for Theoretical Chemistry        |     
     |                    University of Bonn                     |     
      -----------------------------------------------------------      

   * xtb version 6.4.1 (1a32961) compiled by 'knkr256@seskscpg007.prim.scp' on 2021-10-19

   xtb is free software: you can redistribute it and/or modify it under
   the terms of the GNU Lesser General Public License as published by
   the Free Software Foundation, either version 3 of the License, or
   (at your option) any later version.
   
   xtb is distributed in the hope that it will be useful,
   but WITHOUT ANY WARRANTY; without even the implied warranty of
   MERCHANTABILITY or FITNESS FOR A PARTICULAR PURPOSE.  See the
   GNU Lesser General Public License for more details.
   
   Cite this work as:
   * C. Bannwarth, E. Caldeweyher, S. Ehlert, A. Hansen, P. Pracht,
     J. Seibert, S. Spicher, S. Grimme, WIREs Comput. Mol. Sci., 2020, 11,
     e01493. DOI: 10.1002/wcms.1493
   
   for GFN2-xTB:
   * C. Bannwarth, S. Ehlert and S. Grimme., J. Chem. Theory Comput., 2019,
     15, 1652-1671. DOI: 10.1021/acs.jctc.8b01176
   for GFN1-xTB:
   * S. Grimme, C. Bannwarth, P. Shushkov, J. Chem. Theory Comput., 2017,
     13, 1989-2009. DOI: 10.1021/acs.jctc.7b00118
   for GFN0-xTB:
   * P. Pracht, E. Caldeweyher, S. Ehlert, S. Grimme, ChemRxiv, 2019, preprint.
     DOI: 10.26434/chemrxiv.8326202.v1
   for GFN-FF:
   * S. Spicher and S. Grimme, Angew. Chem. Int. Ed., 2020, 59, 15665-15673.
     DOI: 10.1002/anie.202004239
   
   for ALPB and GBSA implicit solvation:
   * S. Ehlert, M. Stahn, S. Spicher, S. Grimme, J. Chem. Theory Comput.,
     2021, 17, 4250-4261. DOI: 10.1021/acs.jctc.1c00471
   
   for DFT-D4:
   * E. Caldeweyher, C. Bannwarth and S. Grimme, J. Chem. Phys., 2017,
     147, 034112. DOI: 10.1063/1.4993215
   * E. Caldeweyher, S. Ehlert, A. Hansen, H. Neugebauer, S. Spicher,
     C. Bannwarth and S. Grimme, J. Chem. Phys., 2019, 150, 154122.
     DOI: 10.1063/1.5090222
   * E. Caldeweyher, J.-M. Mewes, S. Ehlert and S. Grimme, Phys. Chem. Chem. Phys.
     2020, 22, 8499-8512. DOI: 10.1039/D0CP00502A
   
   for sTDA-xTB:
   * S. Grimme and C. Bannwarth, J. Chem. Phys., 2016, 145, 054103.
     DOI: 10.1063/1.4959605
   
   in the mass-spec context:
   * V. Asgeirsson, C. Bauer and S. Grimme, Chem. Sci., 2017, 8, 4879.
     DOI: 10.1039/c7sc00601b
   * J. Koopman and S. Grimme, ACS Omega 2019, 4, 12, 15120-15133.
     DOI: 10.1021/acsomega.9b02011
   
   for metadynamics refer to:
   * S. Grimme, J. Chem. Theory Comput., 2019, 155, 2847-2862
     DOI: 10.1021/acs.jctc.9b00143
   
   for SPH calculations refer to:
   * S. Spicher and S. Grimme, J. Chem. Theory Comput., 2021, 17, 1701-1714
     DOI: 10.1021/acs.jctc.0c01306
   
   with help from (in alphabetical order)
   P. Atkinson, C. Bannwarth, F. Bohle, G. Brandenburg, E. Caldeweyher
   M. Checinski, S. Dohm, S. Ehlert, S. Ehrlich, I. Gerasimov, J. Koopman
   C. Lavigne, S. Lehtola, F. März, M. Müller, F. Musil, H. Neugebauer
   J. Pisarek, C. Plett, P. Pracht, J. Seibert, P. Shushkov, S. Spicher
   M. Stahn, M. Steiner, T. Strunk, J. Stückrath, T. Rose, and J. Unsleber
   
 * started run on 2022/01/14 at 15:10:11.541     

           -------------------------------------------------
          |                Calculation Setup                |
           -------------------------------------------------

          program call               : xtb xtbopt.xyz --sp --alpb thf -P 6
          hostname                   : seskscpg007.prim.scp
          coordinate file            : xtbopt.xyz
          omp threads                :                     6
          number of atoms            :                   137
          number of electrons        :                   340
          charge                     :                     0
          spin                       :                   0.0
          first test random number   :      0.78194463274688

   ID    Z sym.   atoms
    1    7 N      1, 11, 89, 99
    2    6 C      2-6, 10, 12-15, 23, 24, 28, 32, 34, 38, 44, 45, 49, 53, 55,
                  59, 65, 66, 70, 74, 76, 80, 86-88, 91, 93, 94, 100-102,
                  105, 108, 111, 114, 117, 120, 123, 126, 129
    3    1 H      7-9, 16-18, 20, 25-27, 29-31, 35-37, 39-41, 46-48, 50-52,
                  56-58, 60-62, 67-69, 71-73, 77-79, 81-85, 90, 92, 95-97,
                  103, 104, 106, 107, 109, 110, 112, 113, 115, 116, 118, 119,
                  121, 122, 124, 125, 127, 128, 130-137
    4   77 Ir     19
    5    5 B      21, 42, 63
    6    8 O      22, 33, 43, 54, 64, 75, 98

molecular fragmentation (1/2 indicates fragments):
111111111111111111111111111111111111111111111111111111111111111111111111
11111111111112222222222222222222222222222222222222222222222222222
# atoms in fragment 1/2:    85    52
 fragment masses (1/2) :      730.32      291.45
CMA distance (Bohr)    :  13.370
constraining FC (au)   :  0.0500

           -------------------------------------------------
          |                 G F N 2 - x T B                 |
           -------------------------------------------------

        Reference                      10.1021/acs.jctc.8b01176
      * Hamiltonian:
        H0-scaling (s, p, d)           1.850000    2.230000    2.230000
        zeta-weighting                 0.500000
      * Dispersion:
        s8                             2.700000
        a1                             0.520000
        a2                             5.000000
        s9                             5.000000
      * Repulsion:
        kExp                           1.500000    1.000000
        rExp                           1.000000
      * Coulomb:
        alpha                          2.000000
        third order                    shell-resolved
        anisotropic                    true
        a3                             3.000000
        a5                             4.000000
        cn-shift                       1.200000
        cn-exp                         4.000000
        max-rad                        5.000000

      * Solvation model:               ALPB
        Solvent                        thf
        Parameter file                 internal GFN2-xTB/ALPB
        Dielectric constant                7.6000E+00
        Reference state                gsolv [1 M gas/solution]
        Free energy shift                  5.3248E-03 Eh       3.3414E+00 kcal/mol
        Temperature                        2.9815E+02 K
        Density                            8.8300E-01 kg/L
        Solvent mass                       7.2106E+01 g/mol
        Interaction kernel             P16
        Born radius scaling (c1)           1.7311E+00
        Born radii integrator          GBOBC
        Born offset                        0.0000E+00 a0       0.0000E+00 AA
        H-bond correction              true
        Ion screening                  false
        Surface tension                    1.0000E-05 Eh       1.5569E+01 dyn/cm
        Grid points                               230 per atom
q/qsh data taken from xtbrestart
CAMM data taken from xtbrestart

          ...................................................
          :                      SETUP                      :
          :.................................................:
          :  # basis functions                 326          :
          :  # atomic orbitals                 325          :
          :  # shells                          199          :
          :  # electrons                       340          :
          :  max. iterations                   250          :
          :  Hamiltonian                  GFN2-xTB          :
          :  restarted?                       true          :
          :  GBSA solvation                   true          :
          :  PC potential                    false          :
          :  electronic temp.          300.0000000     K    :
          :  accuracy                    1.0000000          :
          :  -> integral cutoff          0.2500000E+02      :
          :  -> integral neglect         0.1000000E-07      :
          :  -> SCF convergence          0.1000000E-05 Eh   :
          :  -> wf. convergence          0.1000000E-03 e    :
          :  Broyden damping             0.4000000          :
          ...................................................

 iter      E             dE          RMSdq      gap      omega  full diag
   1   -187.7806040 -0.187781E+03  0.269E-05    0.84       0.0  T
   2   -187.7806040  0.527336E-09  0.677E-05    0.84     126.2  T
   3   -187.7806040 -0.614818E-09  0.893E-06    0.84     957.2  T

   *** convergence criteria satisfied after 3 iterations ***

         #    Occupation            Energy/Eh            Energy/eV
      -------------------------------------------------------------
         1        2.0000           -0.6768617             -18.4183
       ...           ...                  ...                  ...
       164        2.0000           -0.3561971              -9.6926
       165        2.0000           -0.3423444              -9.3157
       166        2.0000           -0.3254845              -8.8569
       167        2.0000           -0.3175885              -8.6420
       168        2.0000           -0.3127060              -8.5092
       169        2.0000           -0.3069597              -8.3528
       170        2.0000           -0.3047657              -8.2931 (HOMO)
       171        0.0000           -0.2738126              -7.4508 (LUMO)
       172                         -0.2460869              -6.6964
       173                         -0.2435211              -6.6265
       174                         -0.2203203              -5.9952
       175                         -0.2030102              -5.5242
       ...                                ...                  ...
       325                          3.6190565              98.4795
      -------------------------------------------------------------
                  HL-Gap            0.0309531 Eh            0.8423 eV
             Fermi-level           -0.2892441 Eh           -7.8707 eV

 SCC (total)                   0 d,  0 h,  0 min,  0.146 sec
 SCC setup                      ...        0 min,  0.004 sec (  2.520%)
 Dispersion                     ...        0 min,  0.004 sec (  2.574%)
 classical contributions        ...        0 min,  0.000 sec (  0.165%)
 integral evaluation            ...        0 min,  0.016 sec ( 10.789%)
 iterations                     ...        0 min,  0.052 sec ( 35.603%)
 molecular gradient             ...        0 min,  0.070 sec ( 47.525%)
 printout                       ...        0 min,  0.001 sec (  0.778%)

         :::::::::::::::::::::::::::::::::::::::::::::::::::::
         ::                     SUMMARY                     ::
         :::::::::::::::::::::::::::::::::::::::::::::::::::::
         :: total energy            -185.378965132361 Eh    ::
         :: total w/o Gsasa/hb      -185.328582305591 Eh    ::
         :: gradient norm              0.037197840616 Eh/a0 ::
         :: HOMO-LUMO gap              0.842277388855 eV    ::
         ::.................................................::
         :: SCC energy              -187.780604002849 Eh    ::
         :: -> isotropic ES            0.295864433391 Eh    ::
         :: -> anisotropic ES          0.025135020796 Eh    ::
         :: -> anisotropic XC          0.067483688280 Eh    ::
         :: -> dispersion             -0.176832128837 Eh    ::
         :: -> Gsolv                  -0.069354223734 Eh    ::
         ::    -> Gelec               -0.018971396964 Eh    ::
         ::    -> Gsasa               -0.052785345221 Eh    ::
         ::    -> Ghb                 -0.002922296993 Eh    ::
         ::    -> Gshift               0.005324815444 Eh    ::
         :: repulsion energy           2.390952719117 Eh    ::
         :: add. restraining           0.000000000000 Eh    ::
         :: total charge               0.000000000013 e     ::
         :::::::::::::::::::::::::::::::::::::::::::::::::::::

           -------------------------------------------------
          |                Property Printout                |
           -------------------------------------------------

    * Orbital Energies and Occupations

         #    Occupation            Energy/Eh            Energy/eV
      -------------------------------------------------------------
         1        2.0000           -0.6768617             -18.4183
       ...           ...                  ...                  ...
       158        2.0000           -0.3843723             -10.4593
       159        2.0000           -0.3799236             -10.3382
       160        2.0000           -0.3788056             -10.3078
       161        2.0000           -0.3772967             -10.2668
       162        2.0000           -0.3741734             -10.1818
       163        2.0000           -0.3682260             -10.0199
       164        2.0000           -0.3561971              -9.6926
       165        2.0000           -0.3423444              -9.3157
       166        2.0000           -0.3254845              -8.8569
       167        2.0000           -0.3175885              -8.6420
       168        2.0000           -0.3127060              -8.5092
       169        2.0000           -0.3069597              -8.3528
       170        2.0000           -0.3047657              -8.2931 (HOMO)
       171        0.0000           -0.2738126              -7.4508 (LUMO)
       172                         -0.2460869              -6.6964
       173                         -0.2435211              -6.6265
       174                         -0.2203203              -5.9952
       175                         -0.2030102              -5.5242
       176                         -0.1975708              -5.3762
       177                         -0.1519934              -4.1360
       178                         -0.1493624              -4.0644
       179                         -0.1248912              -3.3985
       180                         -0.1206309              -3.2825
       181                         -0.1185296              -3.2254
       ...                                ...                  ...
       325                          3.6190565              98.4795
      -------------------------------------------------------------
                  HL-Gap            0.0309531 Eh            0.8423 eV
             Fermi-level           -0.2892441 Eh           -7.8707 eV

     #   Z          covCN         q      C6AA      α(0)
     1   7 N        2.548    -0.119    23.631     7.219
     2   6 C        2.956     0.077    26.288     8.410
     3   6 C        2.918    -0.043    29.056     8.839
     4   6 C        2.923    -0.023    28.581     8.767
     5   6 C        2.915    -0.044    29.086     8.844
     6   6 C        2.892     0.049    26.897     8.503
     7   1 H        0.926     0.050     2.314     2.379
     8   1 H        0.926     0.054     2.276     2.359
     9   1 H        0.926     0.045     2.381     2.413
    10   6 C        2.954     0.072    26.398     8.427
    11   7 N        2.580    -0.116    23.541     7.206
    12   6 C        2.890     0.043    27.039     8.525
    13   6 C        2.915    -0.044    29.082     8.843
    14   6 C        2.922    -0.025    28.638     8.776
    15   6 C        2.918    -0.046    29.131     8.851
    16   1 H        0.926     0.046     2.370     2.408
    17   1 H        0.926     0.052     2.300     2.372
    18   1 H        0.926     0.077     2.015     2.220
    19  77 Ir       5.957    -0.171   390.002    36.520
    20   1 H        0.977     0.095     1.828     2.113
    21   5 B        2.623     0.401    16.078     6.781
    22   8 O        1.638    -0.414    21.135     6.206
    23   6 C        3.834     0.131    18.435     6.109
    24   6 C        3.755    -0.120    22.854     6.816
    25   1 H        0.925     0.052     2.294     2.369
    26   1 H        0.925     0.043     2.405     2.425
    27   1 H        0.925     0.049     2.326     2.385
    28   6 C        3.754    -0.107    22.611     6.780
    29   1 H        0.925     0.046     2.372     2.408
    30   1 H        0.925     0.040     2.450     2.448
    31   1 H        0.925     0.027     2.624     2.533
    32   6 C        3.839     0.132    18.423     6.106
    33   8 O        1.637    -0.407    20.990     6.184
    34   6 C        3.755    -0.117    22.805     6.809
    35   1 H        0.925     0.045     2.379     2.412
    36   1 H        0.925     0.045     2.386     2.415
    37   1 H        0.925     0.049     2.336     2.390
    38   6 C        3.754    -0.119    22.835     6.814
    39   1 H        0.925     0.047     2.357     2.401
    40   1 H        0.925     0.052     2.294     2.368
    41   1 H        0.925     0.044     2.400     2.423
    42   5 B        2.617     0.407    16.040     6.779
    43   8 O        1.637    -0.386    20.594     6.126
    44   6 C        3.834     0.130    18.458     6.112
    45   6 C        3.755    -0.123    22.906     6.824
    46   1 H        0.925     0.052     2.290     2.367
    47   1 H        0.925     0.052     2.294     2.368
    48   1 H        0.925     0.048     2.349     2.397
    49   6 C        3.755    -0.121    22.870     6.819
    50   1 H        0.925     0.046     2.370     2.407
    51   1 H        0.925     0.042     2.417     2.431
    52   1 H        0.925     0.055     2.261     2.351
    53   6 C        3.831     0.129    18.473     6.115
    54   8 O        1.637    -0.381    20.488     6.110
    55   6 C        3.755    -0.123    22.913     6.825
    56   1 H        0.925     0.052     2.294     2.368
    57   1 H        0.925     0.056     2.242     2.342
    58   1 H        0.925     0.046     2.374     2.409
    59   6 C        3.755    -0.117    22.801     6.809
    60   1 H        0.925     0.039     2.464     2.455
    61   1 H        0.925     0.047     2.360     2.402
    62   1 H        0.925     0.055     2.257     2.350
    63   5 B        2.624     0.401    16.077     6.780
    64   8 O        1.637    -0.379    20.455     6.105
    65   6 C        3.831     0.126    18.519     6.123
    66   6 C        3.755    -0.129    23.024     6.842
    67   1 H        0.925     0.059     2.215     2.327
    68   1 H        0.925     0.052     2.290     2.367
    69   1 H        0.925     0.047     2.352     2.398
    70   6 C        3.755    -0.128    23.009     6.840
    71   1 H        0.925     0.059     2.210     2.325
    72   1 H        0.925     0.049     2.331     2.387
    73   1 H        0.925     0.051     2.311     2.377
    74   6 C        3.827     0.127    18.505     6.121
    75   8 O        1.637    -0.384    20.548     6.119
    76   6 C        3.755    -0.122    22.889     6.822
    77   1 H        0.925     0.049     2.337     2.391
    78   1 H        0.925     0.051     2.304     2.374
    79   1 H        0.925     0.053     2.285     2.364
    80   6 C        3.755    -0.122    22.886     6.821
    81   1 H        0.925     0.040     2.454     2.450
    82   1 H        0.925     0.050     2.323     2.384
    83   1 H        0.925     0.053     2.287     2.365
    84   1 H        0.926     0.051     2.308     2.376
    85   1 H        0.926     0.050     2.315     2.379
    86   6 C        2.917    -0.056    29.401     8.892
    87   6 C        3.075    -0.025    28.538     8.759
    88   6 C        3.079    -0.056    29.310     8.876
    89   7 N        2.830    -0.018    21.598     6.902
    90   1 H        0.926     0.026     2.649     2.545
    91   6 C        3.069    -0.017    28.358     8.732
    92   1 H        0.926     0.024     2.666     2.553
    93   6 C        3.691    -0.061    21.862     6.691
    94   6 C        2.768     0.259    22.647     7.794
    95   1 H        0.924     0.071     2.078     2.254
    96   1 H        0.924     0.067     2.115     2.274
    97   1 H        0.925     0.065     2.145     2.290
    98   8 O        0.860    -0.518    24.182     6.593
    99   7 N        2.731    -0.101    23.221     7.157
   100   6 C        3.752    -0.006    20.741     6.494
   101   6 C        3.741    -0.009    20.821     6.510
   102   6 C        3.801    -0.065    21.744     6.639
   103   1 H        0.925     0.049     2.326     2.385
   104   1 H        0.924     0.066     2.125     2.279
   105   6 C        3.800    -0.069    21.829     6.652
   106   1 H        0.924     0.049     2.330     2.387
   107   1 H        0.925     0.064     2.148     2.292
   108   6 C        3.801    -0.053    21.518     6.604
   109   1 H        0.924     0.041     2.437     2.441
   110   1 H        0.924     0.043     2.410     2.428
   111   6 C        3.802    -0.061    21.678     6.629
   112   1 H        0.924     0.044     2.396     2.421
   113   1 H        0.924     0.050     2.326     2.385
   114   6 C        3.801    -0.060    21.660     6.626
   115   1 H        0.924     0.033     2.538     2.491
   116   1 H        0.924     0.025     2.657     2.549
   117   6 C        3.802    -0.060    21.660     6.626
   118   1 H        0.924     0.033     2.547     2.496
   119   1 H        0.924     0.037     2.484     2.465
   120   6 C        3.799    -0.056    21.577     6.614
   121   1 H        0.924     0.029     2.596     2.520
   122   1 H        0.924     0.031     2.571     2.507
   123   6 C        3.801    -0.054    21.544     6.608
   124   1 H        0.924     0.034     2.535     2.490
   125   1 H        0.924     0.029     2.594     2.519
   126   6 C        3.751    -0.106    22.582     6.777
   127   1 H        0.924     0.034     2.536     2.490
   128   1 H        0.924     0.029     2.600     2.521
   129   6 C        3.752    -0.104    22.547     6.771
   130   1 H        0.924     0.028     2.610     2.526
   131   1 H        0.924     0.031     2.576     2.510
   132   1 H        0.925     0.033     2.540     2.492
   133   1 H        0.925     0.035     2.520     2.482
   134   1 H        0.925     0.035     2.513     2.479
   135   1 H        0.925     0.036     2.499     2.472
   136   1 H        0.925     0.034     2.532     2.488
   137   1 H        0.925     0.033     2.551     2.498

 Mol. C6AA /au·bohr⁶  :     178087.262079
 Mol. C8AA /au·bohr⁸  :    4482311.109656
 Mol. α(0) /au        :        646.456693


Wiberg/Mayer (AO) data.
largest (>0.10) Wiberg bond orders for each atom

 ---------------------------------------------------------------------------
     #   Z sym  total        # sym  WBO       # sym  WBO       # sym  WBO
 ---------------------------------------------------------------------------
     1   7 N    3.403 --     6 C    1.387     2 C    1.306    19 Ir   0.450
     2   6 C    3.979 --     3 C    1.349     1 N    1.306    10 C    1.093
     3   6 C    3.988 --     4 C    1.483     2 C    1.349     9 H    0.962
                             6 C    0.106
     4   6 C    3.985 --     3 C    1.483     5 C    1.381    84 H    0.969
     5   6 C    3.980 --     6 C    1.461     4 C    1.381     8 H    0.969
     6   6 C    3.978 --     5 C    1.461     1 N    1.387     7 H    0.957
                             3 C    0.106
     7   1 H    0.997 --     6 C    0.957
     8   1 H    0.996 --     5 C    0.969
     9   1 H    0.997 --     3 C    0.962
    10   6 C    3.979 --    15 C    1.352    11 N    1.300     2 C    1.093
    11   7 N    3.432 --    12 C    1.381    10 C    1.300    19 Ir   0.466
    12   6 C    3.973 --    13 C    1.461    11 N    1.381    18 H    0.947
                            15 C    0.105
    13   6 C    3.982 --    12 C    1.461    14 C    1.381    17 H    0.968
    14   6 C    3.982 --    15 C    1.480    13 C    1.381    85 H    0.969
    15   6 C    3.989 --    14 C    1.480    10 C    1.352    16 H    0.962
                            12 C    0.105
    16   1 H    0.997 --    15 C    0.962
    17   1 H    0.997 --    13 C    0.968
    18   1 H    0.994 --    12 C    0.947
    19  77 Ir   5.243 --    63 B    0.861    42 B    0.860    21 B    0.724
                            86 C    0.608    20 H    0.562    11 N    0.466
                             1 N    0.450
    20   1 H    0.988 --    19 Ir   0.562    86 C    0.319
    21   5 B    3.255 --    33 O    1.106    22 O    1.081    19 Ir   0.724
    22   8 O    2.182 --    21 B    1.081    23 C    0.945
    23   6 C    3.945 --    24 C    0.996    28 C    0.989    22 O    0.945
                            32 C    0.942
    24   6 C    3.994 --    23 C    0.996    26 H    0.984    27 H    0.983
                            25 H    0.983
    25   1 H    0.997 --    24 C    0.983
    26   1 H    0.997 --    24 C    0.984
    27   1 H    0.997 --    24 C    0.983
    28   6 C    3.997 --    23 C    0.989    31 H    0.985    29 H    0.984
                            30 H    0.984
    29   1 H    0.997 --    28 C    0.984
    30   1 H    0.998 --    28 C    0.984
    31   1 H    0.999 --    28 C    0.985
    32   6 C    3.942 --    38 C    0.997    34 C    0.991    23 C    0.942
                            33 O    0.941
    33   8 O    2.197 --    21 B    1.106    32 C    0.941
    34   6 C    3.995 --    32 C    0.991    36 H    0.984    35 H    0.984
                            37 H    0.982
    35   1 H    0.998 --    34 C    0.984
    36   1 H    0.997 --    34 C    0.984
    37   1 H    0.997 --    34 C    0.982
    38   6 C    3.995 --    32 C    0.997    41 H    0.984    39 H    0.983
                            40 H    0.983
    39   1 H    0.998 --    38 C    0.983
    40   1 H    0.997 --    38 C    0.983
    41   1 H    0.997 --    38 C    0.984
    42   5 B    3.330 --    43 O    1.114    54 O    1.106    19 Ir   0.860
    43   8 O    2.223 --    42 B    1.114    44 C    0.938
    44   6 C    3.937 --    45 C    0.996    49 C    0.990    53 C    0.939
                            43 O    0.938
    45   6 C    3.993 --    44 C    0.996    48 H    0.983    46 H    0.982
                            47 H    0.982
    46   1 H    0.997 --    45 C    0.982
    47   1 H    0.997 --    45 C    0.982
    48   1 H    0.997 --    45 C    0.983
    49   6 C    3.994 --    44 C    0.990    50 H    0.984    51 H    0.983
                            52 H    0.978
    50   1 H    0.997 --    49 C    0.984
    51   1 H    0.998 --    49 C    0.983
    52   1 H    0.997 --    49 C    0.978
    53   6 C    3.939 --    55 C    0.996    59 C    0.992    44 C    0.939
                            54 O    0.936
    54   8 O    2.224 --    42 B    1.106    53 C    0.936
    55   6 C    3.993 --    53 C    0.996    58 H    0.983    56 H    0.983
                            57 H    0.981
    56   1 H    0.997 --    55 C    0.983
    57   1 H    0.997 --    55 C    0.981
    58   1 H    0.997 --    55 C    0.983
    59   6 C    3.994 --    53 C    0.992    61 H    0.984    60 H    0.981
                            62 H    0.977
    60   1 H    0.998 --    59 C    0.981
    61   1 H    0.997 --    59 C    0.984
    62   1 H    0.997 --    59 C    0.977
    63   5 B    3.352 --    64 O    1.111    75 O    1.109    19 Ir   0.861
    64   8 O    2.227 --    63 B    1.111    65 C    0.941
    65   6 C    3.938 --    70 C    0.996    66 C    0.991    64 O    0.941
                            74 C    0.937
    66   6 C    3.993 --    65 C    0.991    69 H    0.983    68 H    0.983
                            67 H    0.978
    67   1 H    0.997 --    66 C    0.978
    68   1 H    0.997 --    66 C    0.983
    69   1 H    0.997 --    66 C    0.983
    70   6 C    3.993 --    65 C    0.996    72 H    0.984    73 H    0.982
                            71 H    0.982
    71   1 H    0.996 --    70 C    0.982
    72   1 H    0.997 --    70 C    0.984
    73   1 H    0.997 --    70 C    0.982
    74   6 C    3.937 --    76 C    0.995    80 C    0.991    75 O    0.940
                            65 C    0.937
    75   8 O    2.226 --    63 B    1.109    74 C    0.940
    76   6 C    3.993 --    74 C    0.995    77 H    0.983    78 H    0.983
                            79 H    0.982
    77   1 H    0.996 --    76 C    0.983
    78   1 H    0.997 --    76 C    0.983
    79   1 H    0.997 --    76 C    0.982
    80   6 C    3.995 --    74 C    0.991    81 H    0.984    83 H    0.984
                            82 H    0.983
    81   1 H    0.998 --    80 C    0.984
    82   1 H    0.997 --    80 C    0.983
    83   1 H    0.996 --    80 C    0.984
    84   1 H    0.996 --     4 C    0.969
    85   1 H    0.996 --    14 C    0.969
    86   6 C    3.937 --    87 C    1.477    88 C    1.311    19 Ir   0.608
                            20 H    0.319
    87   6 C    3.941 --    86 C    1.477    89 N    1.221    90 H    0.967
                            91 C    0.120
    88   6 C    3.981 --    91 C    1.467    86 C    1.311    92 H    0.965
    89   7 N    3.606 --    87 C    1.221    91 C    1.170    93 C    0.999
    90   1 H    0.999 --    87 C    0.967
    91   6 C    3.936 --    88 C    1.467    89 N    1.170    94 C    1.027
                            87 C    0.120
    92   1 H    0.999 --    88 C    0.965
    93   6 C    3.965 --    89 N    0.999    95 H    0.976    97 H    0.974
                            96 H    0.971
    94   6 C    3.952 --    98 O    1.583    99 N    1.242    91 C    1.027
    95   1 H    0.995 --    93 C    0.976
    96   1 H    0.995 --    93 C    0.971
    97   1 H    0.995 --    93 C    0.974
    98   8 O    1.926 --    94 C    1.583    99 N    0.183
    99   7 N    3.496 --    94 C    1.242   101 C    0.988   100 C    0.983
                            98 O    0.183
   100   6 C    3.967 --   102 C    0.994    99 N    0.983   104 H    0.963
                           103 H    0.963
   101   6 C    3.970 --   105 C    0.995    99 N    0.988   107 H    0.964
                           106 H    0.964
   102   6 C    3.995 --   108 C    1.009   100 C    0.994   109 H    0.974
                           110 H    0.974
   103   1 H    0.997 --   100 C    0.963
   104   1 H    0.995 --   100 C    0.963
   105   6 C    3.995 --   111 C    1.009   101 C    0.995   113 H    0.972
                           112 H    0.970
   106   1 H    0.997 --   101 C    0.964
   107   1 H    0.996 --   101 C    0.964
   108   6 C    3.996 --   102 C    1.009   114 C    1.007   115 H    0.975
                           116 H    0.972
   109   1 H    0.998 --   102 C    0.974
   110   1 H    0.998 --   102 C    0.974
   111   6 C    3.997 --   105 C    1.009   117 C    1.007   118 H    0.978
                           119 H    0.976
   112   1 H    0.998 --   105 C    0.970
   113   1 H    0.997 --   105 C    0.972
   114   6 C    3.997 --   120 C    1.007   108 C    1.007   121 H    0.977
                           122 H    0.977
   115   1 H    0.999 --   108 C    0.975
   116   1 H    0.999 --   108 C    0.972
   117   6 C    3.997 --   123 C    1.008   111 C    1.007   125 H    0.978
                           124 H    0.976
   118   1 H    0.999 --   111 C    0.978
   119   1 H    0.998 --   111 C    0.976
   120   6 C    3.998 --   126 C    1.020   114 C    1.007   128 H    0.978
                           127 H    0.977
   121   1 H    0.999 --   114 C    0.977
   122   1 H    0.999 --   114 C    0.977
   123   6 C    3.998 --   129 C    1.019   117 C    1.008   131 H    0.978
                           130 H    0.975
   124   1 H    0.999 --   117 C    0.976
   125   1 H    0.999 --   117 C    0.978
   126   6 C    3.997 --   120 C    1.020   134 H    0.988   133 H    0.987
                           132 H    0.985
   127   1 H    0.999 --   120 C    0.977
   128   1 H    0.999 --   120 C    0.978
   129   6 C    3.997 --   123 C    1.019   137 H    0.988   136 H    0.987
                           135 H    0.984
   130   1 H    0.999 --   123 C    0.975
   131   1 H    0.999 --   123 C    0.978
   132   1 H    0.999 --   126 C    0.985
   133   1 H    0.999 --   126 C    0.987
   134   1 H    0.999 --   126 C    0.988
   135   1 H    0.999 --   129 C    0.984
   136   1 H    0.999 --   129 C    0.987
   137   1 H    0.999 --   129 C    0.988
 ---------------------------------------------------------------------------

Topologies differ in total number of bonds
Writing topology from bond orders to xtbtopo.mol

molecular dipole:
                 x           y           z       tot (Debye)
 q only:       -2.593      -0.014       0.418
   full:       -3.707       0.208      -0.172       9.447
molecular quadrupole (traceless):
                xx          xy          yy          xz          yz          zz
 q only:      -13.113      16.878      -5.659     -39.915       0.162      18.772
  q+dip:       -9.360      19.787      -7.396     -41.102       5.746      16.756
   full:      -12.254      20.380      -4.532     -42.358       2.179      16.786


           -------------------------------------------------
          | TOTAL ENERGY             -185.378965132361 Eh   |
          | GRADIENT NORM               0.037197840616 Eh/α |
          | HOMO-LUMO GAP               0.842277388855 eV   |
           -------------------------------------------------

------------------------------------------------------------------------
 * finished run on 2022/01/14 at 15:10:11.728     
------------------------------------------------------------------------
 total:
 * wall-time:     0 d,  0 h,  0 min,  0.187 sec
 *  cpu-time:     0 d,  0 h,  0 min,  1.097 sec
 * ratio c/w:     5.850 speedup
 SCF:
 * wall-time:     0 d,  0 h,  0 min,  0.148 sec
 *  cpu-time:     0 d,  0 h,  0 min,  0.885 sec
 * ratio c/w:     5.961 speedup

