137
 energy: -185.365978122343 gnorm: 0.077782443832 xtb: 6.4.1 (1a32961)
N        -0.96509999999959   -2.11529999999971   -0.24090000000002
C        -2.24700000000025   -1.69840000000035   -0.36219999999958
C        -3.14039999999949   -2.36819999999977   -1.21199999999973
C        -2.70220000000022   -3.47559999999971   -1.93049999999968
C        -1.37779999999982   -3.89879999999984   -1.78759999999998
C        -0.54290000000056   -3.18670000000040   -0.93509999999947
H         0.49810000000011   -3.45630000000006   -0.78940000000000
H        -0.99569999999992   -4.76030000000009   -2.32770000000003
H        -4.16500000000015   -2.02890000000007   -1.31829999999998
C        -2.62130000000012   -0.50950000000048    0.44099999999997
N        -1.62600000000003    0.07329999999989    1.16020000000013
C        -1.89679999999997    1.15240000000045    1.91689999999994
C        -3.17229999999996    1.70329999999986    1.99650000000039
C        -4.20509999999994    1.11739999999972    1.26270000000028
C        -3.92609999999963    0.00249999999966    0.47820000000002
H        -4.71959999999996   -0.46419999999985   -0.09520000000000
H        -3.34630000000002    2.57509999999972    2.62070000000000
H        -1.04450000000012    1.57419999999993    2.43690000000016
Ir        0.42150000000006   -0.81649999999999    0.91330000000001
H         0.87260000000000   -2.23030000000000    1.54050000000001
B         0.50670000000014    0.41560000000028   -0.81539999999987
O         0.19500000000003   -0.04700000000064   -2.09149999999984
C         0.00650000000068    1.10039999999945   -2.95430000000003
C         0.49019999999959    0.74740000000036   -4.35779999999988
H         1.51610000000002    0.37380000000005   -4.33699999999997
H         0.44730000000004    1.62239999999994   -5.01670000000005
H        -0.14740000000025   -0.03390000000006   -4.78430000000009
C        -1.50119999999994    1.39559999999869   -2.96670000000024
H        -1.75370000000001    2.21460000000025   -3.64849999999980
H        -2.03200000000010    0.49450000000023   -3.28929999999998
H        -1.85170000000010    1.65210000000004   -1.96219999999988
C         0.84229999999992    2.20669999999991   -2.22039999999975
O         0.75199999999993    1.78259999999976   -0.83689999999980
C         2.32930000000028    2.18619999999995   -2.59900000000004
H         2.74130000000000    1.18499999999975   -2.45749999999999
H         2.48869999999990    2.51299999999996   -3.63179999999998
H         2.87200000000006    2.86269999999996   -1.93199999999992
C         0.28439999999983    3.62290000000007   -2.33659999999987
H        -0.72650000000003    3.69040000000008   -1.92910000000007
H         0.92129999999990    4.31480000000021   -1.77610000000002
H         0.26430000000002    3.94810000000006   -3.38320000000000
B         1.56299999999997    0.60960000000008    1.84839999999998
O         2.92780000000000    0.55229999999994    2.15019999999999
C         3.36330000000002    1.88660000000004    2.50259999999985
C         4.53140000000017    1.78589999999985    3.47740000000029
H         4.27909999999998    1.16090000000004    4.33690000000003
H         5.39389999999999    1.33789999999994    2.97340000000000
H         4.82389999999998    2.77870000000011    3.83820000000004
C         3.79700000000001    2.56850000000004    1.19670000000004
H         4.20019999999999    3.57090000000001    1.37680000000000
H         4.56739999999997    1.95560000000000    0.72110000000000
H         2.95240000000002    2.63259999999999    0.50540000000000
C         2.05039999999995    2.50089999999998    3.09320000000003
O         1.03749999999999    1.81619999999998    2.31909999999997
C         1.89099999999995    4.00449999999999    2.88649999999999
H         1.87290000000002    4.25440000000000    1.82410000000001
H         0.94940000000006    4.34260000000001    3.33170000000001
H         2.71079999999998    4.55150000000001    3.36629999999997
C         1.82469999999999    2.13200000000002    4.56519999999996
H         1.92610000000000    1.05330000000000    4.71320000000000
H         2.52610000000002    2.65280000000002    5.22540000000002
H         0.80630000000003    2.41579999999999    4.84899999999998
B         2.27820000000009   -1.33089999999995    0.17409999999997
O         2.89459999999989   -2.57740000000001    0.38449999999998
C         4.26929999999990   -2.48200000000009   -0.07209999999999
C         5.10899999999997   -2.05380000000002    1.14010000000002
H         4.76349999999999   -1.08739999999996    1.51750000000000
H         4.98050000000000   -2.79469999999999    1.93589999999997
H         6.17419999999995   -1.99290000000000    0.89300000000003
C         4.71950000000025   -3.84660000000007   -0.58469999999930
H         4.75280000000002   -4.56130000000023    0.24420000000025
H         5.72329999999926   -3.78370000000001   -1.02009999999996
H         4.03499999999984   -4.23599999999977   -1.34169999999949
C         4.16440000000015   -1.36220000000009   -1.16300000000058
O         3.08519999999987   -0.55030000000001   -0.65399999999993
C         5.40719999999961   -0.48869999999967   -1.31549999999982
H         6.27320000000017   -1.09009999999985   -1.61529999999990
H         5.23299999999995    0.26930000000027   -2.08589999999974
H         5.64269999999997    0.02650000000021   -0.38240000000025
C         3.71800000000089   -1.89829999999963   -2.53110000000020
H         2.82529999999945   -2.52160000000015   -2.42740000000000
H         3.46090000000023   -1.05250000000036   -3.17550000000018
H         4.50569999999983   -2.48290000000037   -3.01790000000000
H        -3.38500000000024   -4.00129999999985   -2.59309999999949
H        -5.21399999999989    1.52080000000010    1.29960000000014
C         0.23590000000021   -1.68139999999999    2.96029999999997
C        -0.78962639313222   -2.42891038832026    3.49472894074059
C         1.17120268724940   -1.55403410224297    4.00954014344122
N        -0.55289974868213   -2.70896399255138    4.81550266184266
H        -1.68509341537449   -2.80424668781871    3.02913405741771
C         0.66913048730753   -2.16361356898749    5.15122629638143
H         2.13281299171874   -1.07842450509528    3.94550748516747
C        -1.30105828540274   -3.70959753147151    5.53969663031413
C         1.47633451853895   -2.29842576892951    6.37042548801862
H        -1.59406477715607   -4.50485435979433    4.84973255129076
H        -2.20323747781351   -3.28937266750984    5.98888838925401
H        -0.67125849763141   -4.13991774270516    6.31611311510609
O         2.69394095945228   -2.44129939512008    6.24142760916346
N         0.91957523363266   -2.23449945861773    7.62901138685545
C         1.80532142459984   -2.50061551221550    8.76168311593929
C        -0.46931496327871   -1.89433345936119    7.89155846701698
C         1.60648560676776   -3.88678333430430    9.38036481490422
H         1.66531040223256   -1.72835331570333    9.51964975144541
H         2.82657988531650   -2.42210803301555    8.37831589088140
C        -0.68085503107022   -0.84211776407173    8.98781685645184
H        -1.01444330316812   -2.79615109640623    8.19525736376422
H        -0.89159144697684   -1.51522402497825    6.96252027969127
C         1.93078408105197   -5.01297702299086    8.39829379428162
H         0.58370648674152   -3.98567602265002    9.75127194482458
H         2.28256290759168   -3.95433841005047   10.23936273018359
C        -0.07838983116820    0.52801264993917    8.66968698737620
H        -0.28210606528994   -1.21044773279379    9.93606131337129
H        -1.76222461155492   -0.73442329126174    9.11886353487654
C         2.31396850102715   -6.32746337760693    9.08651760775754
H         2.77359145426155   -4.70028312044792    7.77341342180953
H         1.08537487276340   -5.18013694229161    7.72651121502367
C        -0.90233600480067    1.31824625909463    7.65415255338418
H         0.94126906602794    0.40592213405194    8.29656766067878
H        -0.02487742481973    1.10503721441927    9.59828760619129
C         1.21881988616032   -6.94180125049600    9.96111415132806
H         3.19761245814620   -6.14739674440281    9.70757129671169
H         2.59841870404010   -7.05135844420520    8.31638444915654
C        -0.48811894757863    2.78672720750847    7.60597687947079
H        -1.96067997727711    1.26098820787880    7.92670959008460
H        -0.78777950413933    0.87930893158345    6.65987620175920
C        -0.00065340804339   -7.39386687624146    9.16975571687945
H         0.91378272352571   -6.22368814594349   10.72642028972546
H         1.64423624273022   -7.80804476196092   10.47808623032757
C        -1.34907136210483    3.58947130768125    6.64129746752304
H         0.56246064031420    2.85485816118233    7.30665174082638
H        -0.57456241270685    3.21776263721247    8.60805871627807
H        -0.50666470215504   -6.54560911886429    8.71120294720150
H        -0.71152198906981   -7.89978798600615    9.82434087697884
H         0.29214313702905   -8.08692166447707    8.38023715551286
H        -1.27972360763934    3.17893094816252    5.63315117370528
H        -1.02699207289327    4.63033422886429    6.61254542730293
H        -2.39526252576507    3.56165177394722    6.94826442312969
137
 energy: -185.372542714210 gnorm: 0.048668897010 xtb: 6.4.1 (1a32961)
N        -0.96182439262085   -2.10125354225680   -0.24840620505991
C        -2.24057804682736   -1.69072997434176   -0.36368921810686
C        -3.13461980624597   -2.36209212629283   -1.20688817955615
C        -2.70424602305262   -3.46366902449838   -1.92203755637189
C        -1.38375166134802   -3.88229355635617   -1.78207610269996
C        -0.55403721758212   -3.16843766644396   -0.93955018698862
H         0.47967293611034   -3.44876020510270   -0.78983586713104
H        -1.00715031899879   -4.74228741769622   -2.31740272242930
H        -4.15512679240840   -2.02666861308301   -1.31148800581948
C        -2.61231039301361   -0.51555395039408    0.43696386272958
N        -1.61963893744802    0.06221338586129    1.15105085011871
C        -1.89787598084448    1.13584882520274    1.89550932876209
C        -3.16424999542010    1.68661936079085    1.98143193260046
C        -4.19613910495462    1.10294841912339    1.25454530608357
C        -3.91499503870954   -0.00409496189277    0.47539963188182
H        -4.70615042178677   -0.46630966772844   -0.09482026902691
H        -3.33908809274021    2.55187142910943    2.60540208076430
H        -1.05449224470761    1.55464350142228    2.42402494566280
Ir        0.42150000000006   -0.81649999999999    0.91330000000001
H         0.87260000000000   -2.23030000000000    1.54050000000001
B         0.49900536048955    0.42106436848737   -0.79103323199149
O         0.17768376222666   -0.03641170693153   -2.06324747416004
C         0.01146609625130    1.09540321069976   -2.94333466464139
C         0.48997861101637    0.74627983656283   -4.34862752226536
H         1.50899757836475    0.36956797404381   -4.32746822437197
H         0.44508945350341    1.62176616369271   -4.99716200213589
H        -0.14873907654331   -0.02985220868597   -4.76893198707268
C        -1.49277062990777    1.39797426278631   -2.96986388231804
H        -1.73115501622982    2.21090953675749   -3.65423172882197
H        -2.02287175772591    0.50085192798995   -3.28974397586930
H        -1.83944585330443    1.65287250822109   -1.96827332876876
C         0.83268163868373    2.20579040623007   -2.21264408316810
O         0.75725668174883    1.77864863274102   -0.83579359137619
C         2.31505541813463    2.19030900957476   -2.60079749729880
H         2.71974686239126    1.19136675900561   -2.45056012708318
H         2.46670133791074    2.51150944100234   -3.63069512938302
H         2.85735847731347    2.86502541952355   -1.93930828839403
C         0.28072038110818    3.62181596392897   -2.34015771712042
H        -0.72260574688057    3.69079005433833   -1.92789628354493
H         0.92024727685780    4.30577809076787   -1.78364162477332
H         0.26313852090154    3.93412477245396   -3.38451988560097
B         1.56719224247308    0.61650864791664    1.85493338780889
O         2.92855896049214    0.56792645087179    2.13137712429564
C         3.36457195930770    1.88813802305767    2.50780114167752
C         4.53349620344885    1.79035304036796    3.47968165697484
H         4.28195491429860    1.15995668293023    4.32877848383794
H         5.38893745801303    1.34590907603792    2.97282885907853
H         4.81575013941150    2.78045385898218    3.83732544176405
C         3.80001081846348    2.57626066615672    1.20977721695751
H         4.20117545062948    3.57203697179133    1.39404958135879
H         4.56407130704812    1.96447275339021    0.73303927892205
H         2.95155962059576    2.62793148777937    0.52859338892710
C         2.05436731296329    2.50559522598690    3.08749745907009
O         1.04216644327972    1.80932893837103    2.33447775160600
C         1.89399664926248    4.00762999367963    2.88733421111869
H         1.86867593175944    4.25145108477864    1.82911238742819
H         0.95623273226864    4.33591173591777    3.33390175551888
H         2.71408693799598    4.54416822481216    3.36395322780959
C         1.83332502202815    2.14402385131533    4.55972625066591
H         1.93529451228341    1.06958458462818    4.70416875510157
H         2.53363967645022    2.66705275508534    5.20864785785786
H         0.81839146391751    2.42265811087419    4.83977026912976
B         2.27820000000009   -1.33089999999995    0.17409999999997
O         2.89961435828839   -2.56330029388006    0.38669004440745
C         4.26487915484319   -2.48395125466589   -0.07785797357954
C         5.10928772284595   -2.05937375947196    1.12809540916287
H         4.75286011221957   -1.10003995423864    1.50034887132379
H         4.97702048475847   -2.79263726702250    1.92267178335297
H         6.16745246358151   -1.99909163406320    0.87702059217604
C         4.72017760415418   -3.84603008860243   -0.58753063203020
H         4.74949202913334   -4.54939270007006    0.24341395318873
H         5.71835545475390   -3.77435838657078   -1.01889706835085
H         4.03481393817635   -4.23399551488272   -1.33644475719649
C         4.16626463524816   -1.36074903516986   -1.15781623696651
O         3.07414845784911   -0.56379681753609   -0.66320895154690
C         5.40966256266922   -0.49264740448277   -1.31552027014783
H         6.26601486780087   -1.09859834855993   -1.61059031755240
H         5.23162482034041    0.25865327006374   -2.08389371348103
H         5.63695584385252    0.02146888743315   -0.38609119560608
C         3.72959999015284   -1.90013014071525   -2.52607035331944
H         2.83751191803225   -2.51551517977499   -2.41701370826363
H         3.47231782280966   -1.05873636641186   -3.16823628864989
H         4.51974255356090   -2.47758106386643   -3.00326901779546
H        -3.38326208295084   -3.98874682690788   -2.58020349174126
H        -5.19968694903452    1.50559363388244    1.29363223348032
C         0.23590000000021   -1.68139999999999    2.96029999999997
C        -0.79034193564751   -2.42991215019383    3.49689043591991
C         1.16930073131199   -1.55456164549122    4.01288381285498
N        -0.55330517119421   -2.70817725738267    4.81490749760106
H        -1.68417400598650   -2.80508758044478    3.03243521382659
C         0.66615075234638   -2.16208804979297    5.15192645603143
H         2.12872365094767   -1.08013693640006    3.94994522550546
C        -1.30011825954194   -3.70773359275928    5.53845806867861
C         1.47158959125648   -2.29674125240923    6.37491646202335
H        -1.59289264522872   -4.50233274364897    4.85006996575074
H        -2.20268766819730   -3.28796655754682    5.98799188242123
H        -0.67102891930825   -4.13788009831074    6.31453162985851
O         2.68925919339452   -2.44041405979062    6.24519958156437
N         0.92009284372152   -2.23412851297642    7.62473126054939
C         1.80196257309223   -2.50002801225568    8.75465814329562
C        -0.46559578593305   -1.89374916270505    7.88943656239044
C         1.60516248174087   -3.88506339821422    9.37745625672131
H         1.66270974824729   -1.72833093438337    9.51274261041828
H         2.82312486944442   -2.42182489769104    8.37355659591232
C        -0.67862564047915   -0.84275023146410    8.98570546180898
H        -1.01131136961534   -2.79524197475557    8.19334912426749
H        -0.88955495284632   -1.51426180056828    6.96116578483838
C         1.93052260504496   -5.01359235026903    8.39767264572511
H         0.58356880922395   -3.98439757047980    9.74906837940050
H         2.28015471876511   -3.95078255884786   10.23497512075986
C        -0.07799598574635    0.52744208812244    8.66942455253354
H        -0.28115761272836   -1.21035033592550    9.93284356264938
H        -1.75854806909537   -0.73578798575555    9.11660840179738
C         2.31303085628580   -6.32605029245588    9.08630237769714
H         2.77203475359778   -4.70158824830797    7.77349576858242
H         1.08594568276955   -5.18123988462980    7.72651078374911
C        -0.90206917295520    1.31816127960010    7.65405132613349
H         0.94126690759470    0.40653943210650    8.29678395276232
H        -0.02518193336489    1.10349331490992    9.59730774444933
C         1.21866008852263   -6.94073348863519    9.96117595632945
H         3.19563705148943   -6.14613142323404    9.70666186807642
H         2.59755309650550   -7.04966395980237    8.31747864998152
C        -0.48721149037152    2.78697817547699    7.60610840279106
H        -1.95973569314491    1.26117136818780    7.92640118840537
H        -0.78766449825877    0.87983269456433    6.66023751742827
C        -0.00163555274055   -7.39354533675689    9.16922038654881
H         0.91364404572122   -6.22347709644899   10.72567747748109
H         1.64371346853867   -7.80607450846078   10.47767509707542
C        -1.34902964421743    3.59028468739421    6.64050025839769
H         0.56141945248053    2.85491863702378    7.30718898833283
H        -0.57366022201400    3.21776766139400    8.60733404956285
H        -0.50696910999477   -6.54672389788891    8.71122606038012
H        -0.71101416400411   -7.89843704390187    9.82269865006563
H         0.29078026706188   -8.08559779919477    8.38119831536589
H        -1.27954168310577    3.18035097280355    5.63410223687103
H        -1.02750521629048    4.62956445863025    6.61191960042760
H        -2.39351343081017    3.56234541360439    6.94696561541549
137
 energy: -185.374221785976 gnorm: 0.038894644488 xtb: 6.4.1 (1a32961)
N        -0.95390036943060   -2.09422108531770   -0.25492038320730
C        -2.23133377169368   -1.68524475699520   -0.36626314501402
C        -3.12991863563625   -2.35568388242249   -1.20484115200774
C        -2.70748975523621   -3.45429982258097   -1.92065994714911
C        -1.38700740357429   -3.87306466986643   -1.78342784634659
C        -0.55805224203580   -3.15973994967465   -0.94523005569133
H         0.47424720655376   -3.44429571824535   -0.80268327359769
H        -1.01567223390276   -4.73245998394907   -2.31708311154463
H        -4.14898580580623   -2.02087087762189   -1.30244546938710
C        -2.59962640760321   -0.51960744555419    0.43031979653237
N        -1.60949893555958    0.05284490432803    1.14689454331145
C        -1.89472312144348    1.12121829087499    1.88649938373735
C        -3.15617355665461    1.67410787716208    1.97233242255572
C        -4.18856275520389    1.09140323637900    1.24508394015079
C        -3.90307521718136   -0.00993778018823    0.46746120008036
H        -4.69122681108914   -0.47335864662315   -0.10159630637609
H        -3.33173906828190    2.53716801387560    2.59357766005805
H        -1.05689900479575    1.54458918340213    2.41723451552035
Ir        0.42150000000006   -0.81649999999999    0.91330000000001
H         0.87260000000000   -2.23030000000000    1.54050000000001
B         0.49896002829799    0.43070515539491   -0.76860498678079
O         0.15927703945535   -0.02782755767433   -2.03471426766215
C         0.00786157379435    1.09124226417905   -2.92447171518536
C         0.49157154028432    0.73689144032704   -4.32708825133540
H         1.50690364534986    0.35641811020321   -4.30680421817169
H         0.44685664198351    1.61547475846787   -4.96589865588278
H        -0.15119329416429   -0.03316312903841   -4.74588896140888
C        -1.49480886026140    1.40275310818271   -2.97034194364315
H        -1.71449647987842    2.21191805921298   -3.66051169872123
H        -2.02423372252686    0.50795330605516   -3.29109637754445
H        -1.84415330213003    1.66130452626342   -1.97289492801837
C         0.82600111606609    2.20399184168125   -2.20061736399174
O         0.76222713591339    1.78209724169868   -0.82858483451515
C         2.30575212084462    2.19391162694828   -2.59965147164681
H         2.70813547030734    1.19676953139675   -2.44222586212622
H         2.44397761760940    2.50745850861936   -3.63064223533100
H         2.84798357590470    2.87359791961201   -1.94672738587846
C         0.27125992134091    3.61851638221391   -2.33764582648401
H        -0.72803767426908    3.69341693121710   -1.92208193862888
H         0.91583793037841    4.30158877426759   -1.79092113019887
H         0.25427391731797    3.91356894447370   -3.38361300702318
B         1.57262665127477    0.62372544918341    1.85910907427060
O         2.93010765130623    0.58177947909686    2.11486265251914
C         3.36551466509398    1.89162117856107    2.50707610856666
C         4.53167195924270    1.79223092209810    3.48309335745536
H         4.28301419251526    1.15526898660874    4.32546282132548
H         5.38591085070723    1.35586779179172    2.97279892006523
H         4.80303234019317    2.78140411416257    3.84133930750523
C         3.80648120253937    2.59223316773356    1.21772182045948
H         4.20371654309814    3.58422482027177    1.41052024490245
H         4.56997977132006    1.98348188533797    0.74079818444878
H         2.95649614420930    2.63817136038715    0.54107123972239
C         2.05719751928520    2.50697427976097    3.08606346497153
O         1.04617916977031    1.80312505304746    2.34807329721587
C         1.89692513796278    4.00875201033147    2.88296801405015
H         1.86357905008576    4.25109241772170    1.82681160187569
H         0.96372261438477    4.33212612549672    3.33581690311050
H         2.71992365683352    4.53749015565692    3.35524380985590
C         1.84626695717595    2.15838166381189    4.56327536625343
H         1.95191787268640    1.08653281251510    4.70881203576342
H         2.54805315191637    2.68864664784738    5.19948494052977
H         0.83287933721869    2.43454753200780    4.84091098368008
B         2.27820000000009   -1.33089999999996    0.17409999999997
O         2.90089213197415   -2.55230773270901    0.39351856789005
C         4.25701217567639   -2.48290194196387   -0.07838108255111
C         5.11098490092214   -2.06194722749317    1.12155265001273
H         4.75001882403140   -1.10531690103184    1.49092905930766
H         4.97877856650749   -2.79278218552833    1.91492876181454
H         6.16365128861860   -2.00323247299436    0.86201636833526
C         4.71219309100098   -3.84484527942890   -0.59013605792230
H         4.74363029655630   -4.54089465420644    0.24308973202284
H         5.70663340181649   -3.76408411834175   -1.01981393793118
H         4.02725039888807   -4.23513768180227   -1.33472565401481
C         4.16210873070264   -1.36149015707150   -1.15634871819156
O         3.06354547862009   -0.57328347996980   -0.67168365871625
C         5.40734070656271   -0.49544754867422   -1.30935200402885
H         6.25597095096641   -1.10901142031269   -1.59832054280930
H         5.23131135156148    0.24925197687597   -2.08073310752505
H         5.63085562847385    0.02069067735974   -0.38277956436417
C         3.74040716859405   -1.90488020221388   -2.52850173003891
H         2.84922491553711   -2.51739902943959   -2.41842595198243
H         3.48712583987474   -1.06552560079856   -3.17152309672830
H         4.53683576469129   -2.47844322211678   -2.99229874359578
H        -3.38764100510653   -3.97985838464469   -2.57281971432504
H        -5.19035225401273    1.49101521573235    1.28628475198545
C         0.23590000000022   -1.68139999999999    2.96029999999997
C        -0.79061865381569   -2.43117054198706    3.49773258414354
C         1.16715165999688   -1.55235013831844    4.01536242142243
N        -0.55405455940871   -2.70723751168663    4.81406567638063
H        -1.68320615285660   -2.80687217170498    3.03316226126137
C         0.66332176864087   -2.15987665297965    5.15180412971656
H         2.12496339704786   -1.07697159732625    3.95356474904311
C        -1.30021955342003   -3.70559937628454    5.53773118632434
C         1.46805723545094   -2.29568182341640    6.37759670343796
H        -1.59338329427349   -4.50009942044692    4.85048662767776
H        -2.20305574317546   -3.28610309900533    5.98790817812926
H        -0.67154273520213   -4.13581449751565    6.31374902454409
O         2.68623177654263   -2.44112151852894    6.24310864081139
N         0.92069960383973   -2.23361037405200    7.62076704784391
C         1.79911081763149   -2.49833481272512    8.74943581713515
C        -0.46323748108583   -1.89351798905306    7.88669740885671
C         1.60231146747091   -3.88310977642671    9.37395703746587
H         1.65994806198167   -1.72692518778288    9.50762697936908
H         2.82104935057968   -2.42129209156675    8.37098997970255
C        -0.67655715750613   -0.84322083583156    8.98323871458700
H        -1.00936022459700   -2.79485073816375    8.19075462151055
H        -0.88897242976169   -1.51346050011943    6.95919160676689
C         1.92876549819325   -5.01345597118447    8.39555612584789
H         0.58104874787622   -3.98279637349235    9.74536172021651
H         2.27708367376926   -3.94641323891841   10.23040044971494
C        -0.07689370008907    0.52735565151913    8.66840349763999
H        -0.27964544803873   -1.21072047499315    9.92978601256056
H        -1.75591976464466   -0.73733171471839    9.11322205328835
C         2.31142896094073   -6.32389710886511    9.08590045731280
H         2.77007179429279   -4.70184739982838    7.77225170104873
H         1.08473350212138   -5.18209250470830    7.72451793811331
C        -0.90157080302134    1.31830368178644    7.65327597441052
H         0.94239722268278    0.40840678348836    8.29591751742884
H        -0.02532623550768    1.10252957046119    9.59619709452785
C         1.21725187509782   -6.93860764442117    9.96099393769711
H         3.19311464652406   -6.14341606413265    9.70646983980694
H         2.59640082469682   -7.04804363820287    8.31840884008003
C        -0.48604525014862    2.78733425735258    7.60587482837589
H        -1.95872946981298    1.26156206027933    7.92608914888763
H        -0.78732480860795    0.88068080512450    6.65951269459682
C        -0.00339712470891   -7.39259968356809    9.16843542653558
H         0.91144173013937   -6.22166300225755   10.72466324186547
H         1.64217339302952   -7.80348878654741   10.47714687968814
C        -1.34851015795785    3.59105163114301    6.63954728727966
H         0.56139287206634    2.85513107686210    7.30674544518819
H        -0.57320645360827    3.21796616970982    8.60661244924770
H        -0.50805023706723   -6.54623309827093    8.71055388748426
H        -0.71154834855879   -7.89691754781065    9.82210294473609
H         0.29008508695673   -8.08427364154783    8.38159291533505
H        -1.27798988385341    3.18100678495668    5.63420560754733
H        -1.02670047962695    4.62949030415507    6.61186065628206
H        -2.39209041018432    3.56255414618839    6.94615387813410
137
 energy: -185.374754204885 gnorm: 0.038360300119 xtb: 6.4.1 (1a32961)
N        -0.94489161253710   -2.09245641116872   -0.26378895730220
C        -2.22333795129134   -1.68358381275919   -0.37061092376915
C        -3.12623761852223   -2.35381589947785   -1.20597763909424
C        -2.70900058236783   -3.45253294190293   -1.92314960948258
C        -1.38667513345681   -3.87128724295876   -1.79116667829745
C        -0.55422526834877   -3.15722998221390   -0.95698456218555
H         0.47803549709747   -3.44552225684118   -0.81910389025912
H        -1.01894065267748   -4.73132333354151   -2.32534500264386
H        -4.14517971542212   -2.01718562523910   -1.29804233396913
C        -2.59015128873783   -0.52185702226236    0.42619344241750
N        -1.60080516865877    0.04987243190416    1.14540574392898
C        -1.88939828274961    1.11793721517948    1.88342179736011
C        -3.15074258619481    1.67027757108960    1.96835234098306
C        -4.18344200982555    1.08639443411256    1.23970904891656
C        -3.89475783408219   -0.01296683808002    0.46199978518383
H        -4.68014381082598   -0.47717808131854   -0.11006345381892
H        -3.32791447351069    2.53208067612655    2.58984150471244
H        -1.05515607840094    1.54169926706292    2.42009984845532
Ir        0.42150000000006   -0.81649999999999    0.91330000000001
H         0.87260000000000   -2.23030000000000    1.54050000000001
B         0.49170617869191    0.44182318418650   -0.75169038112492
O         0.14108033251194   -0.02174306199853   -2.01314989765550
C         0.00094269176897    1.08941052423864   -2.90886983350328
C         0.49095348827251    0.72548847647361   -4.30765295002151
H         1.50390997014819    0.33943229499002   -4.28141475165144
H         0.45314223851894    1.60379856970534   -4.94673760997749
H        -0.15476574294816   -0.04196387049920   -4.72633415189188
C        -1.50062894352724    1.40885757447592   -2.96995953786947
H        -1.70668768958602    2.21589583663140   -3.66629097964032
H        -2.03094301021694    0.51532516051341   -3.29214845992013
H        -1.85780907710033    1.67371240271127   -1.97708404329811
C         0.81966273563134    2.20507354615556   -2.18963831038216