      -----------------------------------------------------------      
     |                   =====================                   |     
     |                           x T B                           |     
     |                   =====================                   |     
     |                         S. Grimme                         |     
     |          Mulliken Center for Theoretical Chemistry        |     
     |                    University of Bonn                     |     
      -----------------------------------------------------------      

   * xtb version 6.4.1 (1a32961) compiled by 'knkr256@seskscpg007.prim.scp' on 2021-10-19

   xtb is free software: you can redistribute it and/or modify it under
   the terms of the GNU Lesser General Public License as published by
   the Free Software Foundation, either version 3 of the License, or
   (at your option) any later version.
   
   xtb is distributed in the hope that it will be useful,
   but WITHOUT ANY WARRANTY; without even the implied warranty of
   MERCHANTABILITY or FITNESS FOR A PARTICULAR PURPOSE.  See the
   GNU Lesser General Public License for more details.
   
   Cite this work as:
   * C. Bannwarth, E. Caldeweyher, S. Ehlert, A. Hansen, P. Pracht,
     J. Seibert, S. Spicher, S. Grimme, WIREs Comput. Mol. Sci., 2020, 11,
     e01493. DOI: 10.1002/wcms.1493
   
   for GFN2-xTB:
   * C. Bannwarth, S. Ehlert and S. Grimme., J. Chem. Theory Comput., 2019,
     15, 1652-1671. DOI: 10.1021/acs.jctc.8b01176
   for GFN1-xTB:
   * S. Grimme, C. Bannwarth, P. Shushkov, J. Chem. Theory Comput., 2017,
     13, 1989-2009. DOI: 10.1021/acs.jctc.7b00118
   for GFN0-xTB:
   * P. Pracht, E. Caldeweyher, S. Ehlert, S. Grimme, ChemRxiv, 2019, preprint.
     DOI: 10.26434/chemrxiv.8326202.v1
   for GFN-FF:
   * S. Spicher and S. Grimme, Angew. Chem. Int. Ed., 2020, 59, 15665-15673.
     DOI: 10.1002/anie.202004239
   
   for ALPB and GBSA implicit solvation:
   * S. Ehlert, M. Stahn, S. Spicher, S. Grimme, J. Chem. Theory Comput.,
     2021, 17, 4250-4261. DOI: 10.1021/acs.jctc.1c00471
   
   for DFT-D4:
   * E. Caldeweyher, C. Bannwarth and S. Grimme, J. Chem. Phys., 2017,
     147, 034112. DOI: 10.1063/1.4993215
   * E. Caldeweyher, S. Ehlert, A. Hansen, H. Neugebauer, S. Spicher,
     C. Bannwarth and S. Grimme, J. Chem. Phys., 2019, 150, 154122.
     DOI: 10.1063/1.5090222
   * E. Caldeweyher, J.-M. Mewes, S. Ehlert and S. Grimme, Phys. Chem. Chem. Phys.
     2020, 22, 8499-8512. DOI: 10.1039/D0CP00502A
   
   for sTDA-xTB:
   * S. Grimme and C. Bannwarth, J. Chem. Phys., 2016, 145, 054103.
     DOI: 10.1063/1.4959605
   
   in the mass-spec context:
   * V. Asgeirsson, C. Bauer and S. Grimme, Chem. Sci., 2017, 8, 4879.
     DOI: 10.1039/c7sc00601b
   * J. Koopman and S. Grimme, ACS Omega 2019, 4, 12, 15120-15133.
     DOI: 10.1021/acsomega.9b02011
   
   for metadynamics refer to:
   * S. Grimme, J. Chem. Theory Comput., 2019, 155, 2847-2862
     DOI: 10.1021/acs.jctc.9b00143
   
   for SPH calculations refer to:
   * S. Spicher and S. Grimme, J. Chem. Theory Comput., 2021, 17, 1701-1714
     DOI: 10.1021/acs.jctc.0c01306
   
   with help from (in alphabetical order)
   P. Atkinson, C. Bannwarth, F. Bohle, G. Brandenburg, E. Caldeweyher
   M. Checinski, S. Dohm, S. Ehlert, S. Ehrlich, I. Gerasimov, J. Koopman
   C. Lavigne, S. Lehtola, F. März, M. Müller, F. Musil, H. Neugebauer
   J. Pisarek, C. Plett, P. Pracht, J. Seibert, P. Shushkov, S. Spicher
   M. Stahn, M. Steiner, T. Strunk, J. Stückrath, T. Rose, and J. Unsleber
   
 * started run on 2022/01/14 at 15:05:45.960     

           -------------------------------------------------
          |                Calculation Setup                |
           -------------------------------------------------

          program call               : xtb xtbopt.xyz --sp --alpb thf -P 6
          hostname                   : seskscpg007.prim.scp
          coordinate file            : xtbopt.xyz
          omp threads                :                     6
          number of atoms            :                    96
          number of electrons        :                   264
          charge                     :                     0
          spin                       :                   0.0
          first test random number   :      0.96125306501356

   ID    Z sym.   atoms
    1    7 N      1, 11, 91, 95
    2    6 C      2-6, 10, 12-15, 23, 24, 28, 32, 34, 38, 44, 45, 49, 53, 55,
                  59, 65, 66, 70, 74, 76, 80, 86-89, 92, 93
    3    1 H      7-9, 16-18, 20, 25-27, 29-31, 35-37, 39-41, 46-48, 50-52,
                  56-58, 60-62, 67-69, 71-73, 77-79, 81-85, 90, 96
    4   77 Ir     19
    5    5 B      21, 42, 63
    6    8 O      22, 33, 43, 54, 64, 75
    7   35 Br     94

molecular fragmentation (1/2 indicates fragments):
111111111111111111111111111111111111111111111111111111111111111111111111
111111111111122222222222
# atoms in fragment 1/2:    85    11
 fragment masses (1/2) :      730.32      182.00
CMA distance (Bohr)    :   9.722
constraining FC (au)   :  0.0500

           -------------------------------------------------
          |                 G F N 2 - x T B                 |
           -------------------------------------------------

        Reference                      10.1021/acs.jctc.8b01176
      * Hamiltonian:
        H0-scaling (s, p, d)           1.850000    2.230000    2.230000
        zeta-weighting                 0.500000
      * Dispersion:
        s8                             2.700000
        a1                             0.520000
        a2                             5.000000
        s9                             5.000000
      * Repulsion:
        kExp                           1.500000    1.000000
        rExp                           1.000000
      * Coulomb:
        alpha                          2.000000
        third order                    shell-resolved
        anisotropic                    true
        a3                             3.000000
        a5                             4.000000
        cn-shift                       1.200000
        cn-exp                         4.000000
        max-rad                        5.000000

      * Solvation model:               ALPB
        Solvent                        thf
        Parameter file                 internal GFN2-xTB/ALPB
        Dielectric constant                7.6000E+00
        Reference state                gsolv [1 M gas/solution]
        Free energy shift                  5.3248E-03 Eh       3.3414E+00 kcal/mol
        Temperature                        2.9815E+02 K
        Density                            8.8300E-01 kg/L
        Solvent mass                       7.2106E+01 g/mol
        Interaction kernel             P16
        Born radius scaling (c1)           1.7311E+00
        Born radii integrator          GBOBC
        Born offset                        0.0000E+00 a0       0.0000E+00 AA
        H-bond correction              true
        Ion screening                  false
        Surface tension                    1.0000E-05 Eh       1.5569E+01 dyn/cm
        Grid points                               230 per atom
q/qsh data taken from xtbrestart
CAMM data taken from xtbrestart

          ...................................................
          :                      SETUP                      :
          :.................................................:
          :  # basis functions                 255          :
          :  # atomic orbitals                 253          :
          :  # shells                          147          :
          :  # electrons                       264          :
          :  max. iterations                   250          :
          :  Hamiltonian                  GFN2-xTB          :
          :  restarted?                       true          :
          :  GBSA solvation                   true          :
          :  PC potential                    false          :
          :  electronic temp.          300.0000000     K    :
          :  accuracy                    1.0000000          :
          :  -> integral cutoff          0.2500000E+02      :
          :  -> integral neglect         0.1000000E-07      :
          :  -> SCF convergence          0.1000000E-05 Eh   :
          :  -> wf. convergence          0.1000000E-03 e    :
          :  Broyden damping             0.4000000          :
          ...................................................

 iter      E             dE          RMSdq      gap      omega  full diag
   1   -146.6680820 -0.146668E+03  0.389E-05    0.94       0.0  T
   2   -146.6680820  0.338503E-10  0.330E-05    0.94     308.9  T
   3   -146.6680820  0.189289E-10  0.329E-05    0.94     310.5  T

   *** convergence criteria satisfied after 3 iterations ***

         #    Occupation            Energy/Eh            Energy/eV
      -------------------------------------------------------------
         1        2.0000           -0.8435759             -22.9549
       ...           ...                  ...                  ...
       126        2.0000           -0.3853443             -10.4858
       127        2.0000           -0.3602543              -9.8030
       128        2.0000           -0.3453783              -9.3982
       129        2.0000           -0.3377510              -9.1907
       130        2.0000           -0.3320083              -9.0344
       131        2.0000           -0.3251065              -8.8466
       132        2.0000           -0.3225730              -8.7777 (HOMO)
       133                         -0.2879040              -7.8343 (LUMO)
       134                         -0.2813645              -7.6563
       135                         -0.2605521              -7.0900
       136                         -0.2571298              -6.9969
       137                         -0.2536507              -6.9022
       ...                                ...                  ...
       253                          3.7855655             103.0105
      -------------------------------------------------------------
                  HL-Gap            0.0346690 Eh            0.9434 eV
             Fermi-level           -0.3052070 Eh           -8.3051 eV

 SCC (total)                   0 d,  0 h,  0 min,  0.088 sec
 SCC setup                      ...        0 min,  0.003 sec (  3.157%)
 Dispersion                     ...        0 min,  0.002 sec (  2.303%)
 classical contributions        ...        0 min,  0.000 sec (  0.154%)
 integral evaluation            ...        0 min,  0.011 sec ( 12.289%)
 iterations                     ...        0 min,  0.036 sec ( 41.050%)
 molecular gradient             ...        0 min,  0.035 sec ( 40.370%)
 printout                       ...        0 min,  0.001 sec (  0.611%)

         :::::::::::::::::::::::::::::::::::::::::::::::::::::
         ::                     SUMMARY                     ::
         :::::::::::::::::::::::::::::::::::::::::::::::::::::
         :: total energy            -144.811588070028 Eh    ::
         :: total w/o Gsasa/hb      -144.770907486052 Eh    ::
         :: gradient norm              0.034982041784 Eh/a0 ::
         :: HOMO-LUMO gap              0.943391426321 eV    ::
         ::.................................................::
         :: SCC energy              -146.668081993150 Eh    ::
         :: -> isotropic ES            0.252415497830 Eh    ::
         :: -> anisotropic ES          0.007345989229 Eh    ::
         :: -> anisotropic XC          0.063378560508 Eh    ::
         :: -> dispersion             -0.140475714307 Eh    ::
         :: -> Gsolv                  -0.052374931490 Eh    ::
         ::    -> Gelec               -0.011694347514 Eh    ::
         ::    -> Gsasa               -0.043318397637 Eh    ::
         ::    -> Ghb                 -0.002687001783 Eh    ::
         ::    -> Gshift               0.005324815444 Eh    ::
         :: repulsion energy           1.847775915452 Eh    ::
         :: add. restraining           0.000000000000 Eh    ::
         :: total charge               0.000000001631 e     ::
         :::::::::::::::::::::::::::::::::::::::::::::::::::::

           -------------------------------------------------
          |                Property Printout                |
           -------------------------------------------------

    * Orbital Energies and Occupations

         #    Occupation            Energy/Eh            Energy/eV
      -------------------------------------------------------------
         1        2.0000           -0.8435759             -22.9549
       ...           ...                  ...                  ...
       120        2.0000           -0.4074669             -11.0877
       121        2.0000           -0.4063836             -11.0583
       122        2.0000           -0.3997746             -10.8784
       123        2.0000           -0.3925835             -10.6827
       124        2.0000           -0.3891822             -10.5902
       125        2.0000           -0.3864793             -10.5166
       126        2.0000           -0.3853443             -10.4858
       127        2.0000           -0.3602543              -9.8030
       128        2.0000           -0.3453783              -9.3982
       129        2.0000           -0.3377510              -9.1907
       130        2.0000           -0.3320083              -9.0344
       131        2.0000           -0.3251065              -8.8466
       132        2.0000           -0.3225730              -8.7777 (HOMO)
       133                         -0.2879040              -7.8343 (LUMO)
       134                         -0.2813645              -7.6563
       135                         -0.2605521              -7.0900
       136                         -0.2571298              -6.9969
       137                         -0.2536507              -6.9022
       138                         -0.2179236              -5.9300
       139                         -0.2152625              -5.8576
       140                         -0.2091672              -5.6917
       141                         -0.2004503              -5.4545
       142                         -0.1829634              -4.9787
       143                         -0.1638649              -4.4590
       ...                                ...                  ...
       253                          3.7855655             103.0105
      -------------------------------------------------------------
                  HL-Gap            0.0346690 Eh            0.9434 eV
             Fermi-level           -0.3052070 Eh           -8.3051 eV

     #   Z          covCN         q      C6AA      α(0)
     1   7 N        2.530    -0.122    23.692     7.229
     2   6 C        2.953     0.079    26.242     8.402
     3   6 C        2.918    -0.041    29.029     8.835
     4   6 C        2.924    -0.019    28.476     8.751
     5   6 C        2.915    -0.040    29.002     8.831
     6   6 C        2.892     0.050    26.874     8.499
     7   1 H        0.926     0.057     2.233     2.337
     8   1 H        0.926     0.064     2.153     2.295
     9   1 H        0.926     0.055     2.256     2.349
    10   6 C        2.951     0.076    26.311     8.413
    11   7 N        2.533    -0.133    23.926     7.264
    12   6 C        2.889     0.044    27.022     8.523
    13   6 C        2.915    -0.041    29.027     8.835
    14   6 C        2.923    -0.021    28.532     8.760
    15   6 C        2.918    -0.043    29.080     8.843
    16   1 H        0.926     0.055     2.253     2.347
    17   1 H        0.926     0.058     2.225     2.332
    18   1 H        0.926     0.074     2.037     2.232
    19  77 Ir       5.901    -0.139   386.124    36.338
    20   1 H        0.977     0.086     1.909     2.159
    21   5 B        2.642     0.407    15.922     6.731
    22   8 O        1.638    -0.399    20.846     6.163
    23   6 C        3.838     0.129    18.462     6.113
    24   6 C        3.755    -0.124    22.941     6.829
    25   1 H        0.925     0.056     2.242     2.342
    26   1 H        0.925     0.048     2.346     2.395
    27   1 H        0.925     0.055     2.262     2.352
    28   6 C        3.754    -0.112    22.701     6.794
    29   1 H        0.925     0.051     2.304     2.374
    30   1 H        0.925     0.045     2.380     2.413
    31   1 H        0.925     0.028     2.621     2.532
    32   6 C        3.846     0.131    18.432     6.107
    33   8 O        1.637    -0.403    20.926     6.175
    34   6 C        3.755    -0.124    22.935     6.829
    35   1 H        0.925     0.054     2.273     2.358
    36   1 H        0.925     0.049     2.327     2.385
    37   1 H        0.925     0.051     2.304     2.374
    38   6 C        3.754    -0.122    22.886     6.821
    39   1 H        0.925     0.047     2.356     2.400
    40   1 H        0.925     0.055     2.261     2.352
    41   1 H        0.925     0.049     2.336     2.390
    42   5 B        2.615     0.403    16.099     6.793
    43   8 O        1.637    -0.375    20.378     6.093
    44   6 C        3.831     0.128    18.482     6.117
    45   6 C        3.755    -0.129    23.043     6.845
    46   1 H        0.925     0.062     2.170     2.304
    47   1 H        0.925     0.057     2.229     2.335
    48   1 H        0.925     0.053     2.287     2.365
    49   6 C        3.755    -0.122    22.897     6.823
    50   1 H        0.925     0.052     2.293     2.368
    51   1 H        0.925     0.052     2.292     2.367
    52   1 H        0.925     0.051     2.302     2.373
    53   6 C        3.824     0.127    18.497     6.120
    54   8 O        1.637    -0.391    20.692     6.140
    55   6 C        3.755    -0.124    22.924     6.827
    56   1 H        0.925     0.052     2.299     2.371
    57   1 H        0.925     0.053     2.286     2.365
    58   1 H        0.925     0.052     2.293     2.368
    59   6 C        3.755    -0.123    22.906     6.824
    60   1 H        0.925     0.045     2.380     2.413
    61   1 H        0.925     0.055     2.261     2.351
    62   1 H        0.925     0.050     2.321     2.382
    63   5 B        2.636     0.404    15.981     6.748
    64   8 O        1.637    -0.384    20.550     6.119
    65   6 C        3.837     0.126    18.511     6.121
    66   6 C        3.755    -0.133    23.118     6.856
    67   1 H        0.925     0.058     2.226     2.333
    68   1 H        0.925     0.064     2.158     2.297
    69   1 H        0.925     0.053     2.281     2.362
    70   6 C        3.755    -0.130    23.053     6.846
    71   1 H        0.925     0.062     2.181     2.309
    72   1 H        0.925     0.054     2.276     2.359
    73   1 H        0.925     0.053     2.284     2.363
    74   6 C        3.834     0.126    18.504     6.120
    75   8 O        1.637    -0.374    20.358     6.090
    76   6 C        3.755    -0.127    22.989     6.837
    77   1 H        0.925     0.054     2.272     2.357
    78   1 H        0.925     0.056     2.250     2.346
    79   1 H        0.925     0.058     2.220     2.330
    80   6 C        3.755    -0.124    22.943     6.830
    81   1 H        0.925     0.041     2.439     2.442
    82   1 H        0.925     0.054     2.275     2.359
    83   1 H        0.925     0.057     2.230     2.335
    84   1 H        0.926     0.062     2.179     2.309
    85   1 H        0.926     0.059     2.211     2.325
    86   6 C        2.829    -0.038    28.934     8.814
    87   6 C        3.001    -0.017    28.410     8.743
    88   6 C        2.956     0.095    25.889     8.345
    89   6 C        2.906     0.064    26.557     8.450
    90   1 H        0.926     0.054     2.267     2.354
    91   7 N        1.861    -0.230    26.875     7.684
    92   6 C        1.920     0.122    28.102     8.561
    93   6 C        2.959     0.044    27.005     8.524
    94  35 Br       1.051    -0.184   190.148    22.234
    95   7 N        0.911    -0.237    26.193     7.402
    96   1 H        0.926     0.061     2.187     2.313

 Mol. C6AA /au·bohr⁶  :     108995.534377
 Mol. C8AA /au·bohr⁸  :    3062304.609511
 Mol. α(0) /au        :        512.564662


Wiberg/Mayer (AO) data.
largest (>0.10) Wiberg bond orders for each atom

 ---------------------------------------------------------------------------
     #   Z sym  total        # sym  WBO       # sym  WBO       # sym  WBO
 ---------------------------------------------------------------------------
     1   7 N    3.401 --     6 C    1.395     2 C    1.322    19 Ir   0.423
     2   6 C    3.978 --     3 C    1.356     1 N    1.322    10 C    1.082
     3   6 C    3.987 --     4 C    1.476     2 C    1.356     9 H    0.961
                             6 C    0.105
     4   6 C    3.984 --     3 C    1.476     5 C    1.394    84 H    0.968
     5   6 C    3.979 --     6 C    1.452     4 C    1.394     8 H    0.967
     6   6 C    3.977 --     5 C    1.452     1 N    1.395     7 H    0.956
                             3 C    0.105
     7   1 H    0.996 --     6 C    0.956
     8   1 H    0.995 --     5 C    0.967
     9   1 H    0.996 --     3 C    0.961
    10   6 C    3.978 --    15 C    1.360    11 N    1.312     2 C    1.082
    11   7 N    3.399 --    12 C    1.390    10 C    1.312    19 Ir   0.412
    12   6 C    3.973 --    13 C    1.452    11 N    1.390    18 H    0.947
                            15 C    0.105
    13   6 C    3.981 --    12 C    1.452    14 C    1.395    17 H    0.968
    14   6 C    3.982 --    15 C    1.471    13 C    1.395    85 H    0.968
    15   6 C    3.988 --    14 C    1.471    10 C    1.360    16 H    0.961
                            12 C    0.105
    16   1 H    0.996 --    15 C    0.961
    17   1 H    0.996 --    13 C    0.968
    18   1 H    0.994 --    12 C    0.947
    19  77 Ir   5.124 --    63 B    0.840    42 B    0.836    21 B    0.739
                            86 C    0.601    20 H    0.537     1 N    0.423
                            11 N    0.412
    20   1 H    0.989 --    19 Ir   0.537    86 C    0.351
    21   5 B    3.290 --    33 O    1.115    22 O    1.108    19 Ir   0.739
    22   8 O    2.206 --    21 B    1.108    23 C    0.937
    23   6 C    3.940 --    24 C    0.997    28 C    0.991    32 C    0.941
                            22 O    0.937
    24   6 C    3.993 --    23 C    0.997    26 H    0.983    27 H    0.983
                            25 H    0.982
    25   1 H    0.997 --    24 C    0.982
    26   1 H    0.996 --    24 C    0.983
    27   1 H    0.997 --    24 C    0.983
    28   6 C    3.996 --    23 C    0.991    31 H    0.985    30 H    0.984
                            29 H    0.984
    29   1 H    0.996 --    28 C    0.984
    30   1 H    0.998 --    28 C    0.984
    31   1 H    0.999 --    28 C    0.985
    32   6 C    3.937 --    38 C    0.998    34 C    0.992    23 C    0.941
                            33 O    0.934
    33   8 O    2.202 --    21 B    1.115    32 C    0.934
    34   6 C    3.993 --    32 C    0.992    36 H    0.983    37 H    0.981
                            35 H    0.981
    35   1 H    0.997 --    34 C    0.981
    36   1 H    0.997 --    34 C    0.983
    37   1 H    0.997 --    34 C    0.981
    38   6 C    3.994 --    32 C    0.998    41 H    0.983    39 H    0.983
                            40 H    0.982
    39   1 H    0.998 --    38 C    0.983
    40   1 H    0.997 --    38 C    0.982
    41   1 H    0.996 --    38 C    0.983
    42   5 B    3.346 --    43 O    1.151    54 O    1.100    19 Ir   0.836
    43   8 O    2.248 --    42 B    1.151    44 C    0.931
    44   6 C    3.931 --    45 C    0.996    49 C    0.992    53 C    0.936
                            43 O    0.931
    45   6 C    3.990 --    44 C    0.996    48 H    0.982    47 H    0.981
                            46 H    0.977
    46   1 H    0.996 --    45 C    0.977
    47   1 H    0.996 --    45 C    0.981
    48   1 H    0.996 --    45 C    0.982
    49   6 C    3.993 --    44 C    0.992    50 H    0.983    51 H    0.982
                            52 H    0.980
    50   1 H    0.996 --    49 C    0.983
    51   1 H    0.997 --    49 C    0.982
    52   1 H    0.997 --    49 C    0.980
    53   6 C    3.934 --    55 C    0.995    59 C    0.994    44 C    0.936
                            54 O    0.930
    54   8 O    2.222 --    42 B    1.100    53 C    0.930
    55   6 C    3.993 --    53 C    0.995    57 H    0.983    56 H    0.982
                            58 H    0.982
    56   1 H    0.997 --    55 C    0.982
    57   1 H    0.997 --    55 C    0.983
    58   1 H    0.996 --    55 C    0.982
    59   6 C    3.994 --    53 C    0.994    62 H    0.983    61 H    0.982
                            60 H    0.981
    60   1 H    0.998 --    59 C    0.981
    61   1 H    0.996 --    59 C    0.982
    62   1 H    0.997 --    59 C    0.983
    63   5 B    3.372 --    75 O    1.132    64 O    1.119    19 Ir   0.840
    64   8 O    2.229 --    63 B    1.119    65 C    0.929
    65   6 C    3.932 --    70 C    0.997    66 C    0.992    74 C    0.939
                            64 O    0.929
    66   6 C    3.990 --    65 C    0.992    69 H    0.982    68 H    0.979
                            67 H    0.978
    67   1 H    0.997 --    66 C    0.978
    68   1 H    0.996 --    66 C    0.979
    69   1 H    0.996 --    66 C    0.982
    70   6 C    3.992 --    65 C    0.997    72 H    0.983    73 H    0.982
                            71 H    0.982
    71   1 H    0.996 --    70 C    0.982
    72   1 H    0.996 --    70 C    0.983
    73   1 H    0.997 --    70 C    0.982
    74   6 C    3.932 --    76 C    0.997    80 C    0.992    65 C    0.939
                            75 O    0.930
    75   8 O    2.243 --    63 B    1.132    74 C    0.930
    76   6 C    3.992 --    74 C    0.997    77 H    0.982    78 H    0.982
                            79 H    0.982
    77   1 H    0.996 --    76 C    0.982
    78   1 H    0.997 --    76 C    0.982
    79   1 H    0.997 --    76 C    0.982
    80   6 C    3.994 --    74 C    0.992    81 H    0.984    83 H    0.983
                            82 H    0.983
    81   1 H    0.998 --    80 C    0.984
    82   1 H    0.997 --    80 C    0.983
    83   1 H    0.996 --    80 C    0.983
    84   1 H    0.995 --     4 C    0.968
    85   1 H    0.995 --    14 C    0.968
    86   6 C    3.918 --    87 C    1.361    88 C    1.293    19 Ir   0.601
                            20 H    0.351
    87   6 C    3.988 --    89 C    1.435    86 C    1.361    90 H    0.959
    88   6 C    3.979 --    91 N    1.356    86 C    1.293    92 C    1.076
    89   6 C    3.929 --    87 C    1.435    93 C    1.356    94 Br   0.963
    90   1 H    0.996 --    87 C    0.959
    91   7 N    3.083 --    93 C    1.459    88 C    1.356
    92   6 C    3.939 --    95 N    2.790    88 C    1.076
    93   6 C    3.975 --    91 N    1.459    89 C    1.356    96 H    0.959
    94  35 Br   1.099 --    89 C    0.963
    95   7 N    2.997 --    92 C    2.790
    96   1 H    0.994 --    93 C    0.959
 ---------------------------------------------------------------------------

Topologies differ in total number of bonds
Writing topology from bond orders to xtbtopo.mol

molecular dipole:
                 x           y           z       tot (Debye)
 q only:       -0.370       0.977      -2.998
   full:       -1.710       1.180      -3.527      10.405
molecular quadrupole (traceless):
                xx          xy          yy          xz          yz          zz
 q only:       13.263       0.030      11.624       1.292      25.087     -24.886
  q+dip:        6.129      -1.272      17.924       2.020      30.962     -24.052
   full:        3.109      -0.436      21.015      -0.772      27.842     -24.124


           -------------------------------------------------
          | TOTAL ENERGY             -144.811588070028 Eh   |
          | GRADIENT NORM               0.034982041784 Eh/α |
          | HOMO-LUMO GAP               0.943391426321 eV   |
           -------------------------------------------------

------------------------------------------------------------------------
 * finished run on 2022/01/14 at 15:05:46.075     
------------------------------------------------------------------------
 total:
 * wall-time:     0 d,  0 h,  0 min,  0.115 sec
 *  cpu-time:     0 d,  0 h,  0 min,  0.671 sec
 * ratio c/w:     5.824 speedup
 SCF:
 * wall-time:     0 d,  0 h,  0 min,  0.089 sec
 *  cpu-time:     0 d,  0 h,  0 min,  0.531 sec
 * ratio c/w:     5.966 speedup

