14
 energy: -19.330879816019 gnorm: 0.044661781611 xtb: 6.4.0 (f63f532)
C        -1.18647000000000   -1.17194000000000   -0.00266000000000
C        -1.80447000000000    0.07196000000000   -0.00538000000000
C        -1.00160000000000    1.19971000000000   -0.00051000000000
N         0.34900000000000    1.16153000000000    0.00226000000000
C         0.93618000000000   -0.05849000000000    0.00191000000000
C         2.43466000000000   -0.09900000000000   -0.00324000000000
C         0.20409000000000   -1.24268000000000    0.00378000000000
H        -1.78129000000000   -2.08078000000000   -0.00598000000000
H        -2.88497000000000    0.16189000000000   -0.01096000000000
H        -1.43517000000000    2.19530000000000    0.00198000000000
H         2.85140000000000    0.91332000000000   -0.01407000000000
H         2.79495000000000   -0.62441000000000   -0.89310000000000
H         2.80314000000000   -0.61027000000000    0.89133000000000
H         0.70420000000000   -2.20522000000000    0.00801000000000
14
 energy: -19.332536813230 gnorm: 0.015845790585 xtb: 6.4.0 (f63f532)
C        -1.18700082822271   -1.17616997575783   -0.00188105961667
C        -1.79521229029599    0.07007308407074   -0.00386402149468
C        -0.98394358679964    1.19023955032805   -0.00069912117756
N         0.34646678386356    1.14062676876646    0.00003138310368
C         0.93000086898234   -0.06040645655722   -0.00042017960789
C         2.42634868084150   -0.08884567893102   -0.00269556925223
C         0.19629764882522   -1.24285002390179    0.00104148120977
H        -1.78090369240786   -2.08058024314276   -0.00342533076759
H        -2.87085938998571    0.16806645267520   -0.00830264638175
H        -1.40408802891207    2.18859882915259   -0.00001252089879
H         2.82271186979994    0.92519159113324   -0.01151848370587
H         2.78951930517755   -0.61929974683483   -0.88259927516081
H         2.79394496062752   -0.60550864520123    0.88343860939918
H         0.70036769850635   -2.19821550579958    0.00427673435121
14
 energy: -19.332708556482 gnorm: 0.002346736659 xtb: 6.4.0 (f63f532)
C        -1.18876810312656   -1.17814644652745   -0.00183759100420
C        -1.79417350789556    0.07042124439263   -0.00342337957759
C        -0.97710525148887    1.18776215050531   -0.00230699947815
N         0.34472959386137    1.12897896460637   -0.00123791225093
C         0.92921617915814   -0.06270696579780   -0.00088709544349
C         2.42576328336349   -0.08544056222751   -0.00223814363329
C         0.19257776686548   -1.24568663629426   -0.00015925402607
H        -1.78335118130130   -2.08023913617081   -0.00188811752550
H        -2.86807903654631    0.17268250447067   -0.00515907452222
H        -1.39200425995662    2.18804077959527   -0.00137432940664
H         2.80743268778941    0.93106854290015   -0.00992989871154
H         2.79275502944668   -0.61539255122831   -0.87933310290933
H         2.79476410431271   -0.60211121716580    0.88186556131700
H         0.69989269551794   -2.19831067105846    0.00127933717194
14
 energy: -19.332714921271 gnorm: 0.000921772792 xtb: 6.4.0 (f63f532)
C        -1.18921184660539   -1.17794386160279   -0.00156761781340
C        -1.79495484558870    0.07089633326820   -0.00255404612064
C        -0.97704761796758    1.18824150088851   -0.00212091062636
N         0.34487439951281    1.12740213267458   -0.00197153013088
C         0.93004802812591   -0.06395910842605   -0.00175690737491
C         2.42681021508190   -0.08532192099016   -0.00199933385386
C         0.19209142212127   -1.24717361580003   -0.00097555116257
H        -1.78459290556474   -2.07963891533269   -0.00146677676796
H        -2.86884766308939    0.17325397602640   -0.00396219467587
H        -1.39208611974965    2.18859627820801   -0.00270270949832
H         2.80580416505329    0.93205033396087   -0.00899646730424
H         2.79522402879218   -0.61408113449544   -0.87930692645847
H         2.79586928427809   -0.60150280067858    0.88252754519009
H         0.69966945560001   -2.19989919770083    0.00022342659738
14
 energy: -19.332715680472 gnorm: 0.000521254961 xtb: 6.4.0 (f63f532)
C        -1.18941381618476   -1.17752612404778   -0.00155211694506
C        -1.79543852852648    0.07139059396031   -0.00260872680993
C        -0.97686708914515    1.18866026996999   -0.00336462598280
N         0.34522366480937    1.12599460227270   -0.00266800478074
C         0.93073236407646   -0.06535483563098   -0.00159163722477
C         2.42753243350061   -0.08510492047901   -0.00177341666772
C         0.19156998958996   -1.24871279975836   -0.00112332412423
H        -1.78588139930635   -2.07878204511225   -0.00094347073428
H        -2.86935986372791    0.17344897491682   -0.00234103818877
H        -1.39212900784101    2.18890457762857   -0.00321729336215
H         2.80433756131126    0.93304419208515   -0.00800699805738
H         2.79714762860154   -0.61243166109304   -0.87951154255167
H         2.79701332544672   -0.60101287220528    0.88284875071574
H         0.69918273739575   -2.20159795250685   -0.00077655528625
