      -----------------------------------------------------------      
     |                   =====================                   |     
     |                           x T B                           |     
     |                   =====================                   |     
     |                         S. Grimme                         |     
     |          Mulliken Center for Theoretical Chemistry        |     
     |                    University of Bonn                     |     
      -----------------------------------------------------------      

   * xtb version 6.4.0 (f63f532) compiled by 'knkr256@seskscpg008.prim.scp' on 2021-04-09

   xtb is free software: you can redistribute it and/or modify it under
   the terms of the GNU Lesser General Public License as published by
   the Free Software Foundation, either version 3 of the License, or
   (at your option) any later version.
   
   xtb is distributed in the hope that it will be useful,
   but WITHOUT ANY WARRANTY; without even the implied warranty of
   MERCHANTABILITY or FITNESS FOR A PARTICULAR PURPOSE.  See the
   GNU Lesser General Public License for more details.
   
   Cite this work as:
   * C. Bannwarth, E. Caldeweyher, S. Ehlert, A. Hansen, P. Pracht,
     J. Seibert, S. Spicher, S. Grimme, WIREs Comput. Mol. Sci., 2020, 11,
     e01493. DOI: 10.1002/wcms.1493
   
   for GFN2-xTB:
   * C. Bannwarth, S. Ehlert and S. Grimme., J. Chem. Theory Comput., 2019,
     15, 1652-1671. DOI: 10.1021/acs.jctc.8b01176
   for GFN1-xTB:
   * S. Grimme, C. Bannwarth, P. Shushkov, J. Chem. Theory Comput., 2017,
     13, 1989-2009. DOI: 10.1021/acs.jctc.7b00118
   for GFN0-xTB:
   * P. Pracht, E. Caldeweyher, S. Ehlert, S. Grimme, ChemRxiv, 2019, preprint.
     DOI: 10.26434/chemrxiv.8326202.v1
   for GFN-FF:
   * S. Spicher and S. Grimme, Angew. Chem. Int. Ed., 2020, 59, 15665-15673.
     DOI: 10.1002/anie.202004239
   
   for DFT-D4:
   * E. Caldeweyher, C. Bannwarth and S. Grimme, J. Chem. Phys., 2017,
     147, 034112. DOI: 10.1063/1.4993215
   * E. Caldeweyher, S. Ehlert, A. Hansen, H. Neugebauer, S. Spicher,
     C. Bannwarth and S. Grimme, J. Chem. Phys., 2019, 150, 154122.
     DOI: 10.1063/1.5090222
   * E. Caldeweyher, J.-M. Mewes, S. Ehlert and S. Grimme, Phys. Chem. Chem. Phys.
     2020, 22, 8499-8512. DOI: 10.1039/D0CP00502A
   
   for sTDA-xTB:
   * S. Grimme and C. Bannwarth, J. Chem. Phys., 2016, 145, 054103.
     DOI: 10.1063/1.4959605
   
   in the mass-spec context:
   * V. Asgeirsson, C. Bauer and S. Grimme, Chem. Sci., 2017, 8, 4879.
     DOI: 10.1039/c7sc00601b
   * J. Koopman and S. Grimme, ACS Omega 2019, 4, 12, 15120-15133.
     DOI: 10.1021/acsomega.9b02011
   
   for metadynamics refer to:
   * S. Grimme, J. Chem. Theory Comput., 2019, 155, 2847-2862
     DOI: 10.1021/acs.jctc.9b00143
   
   for SPH calculations refer to:
   * S. Spicher and S. Grimme, J. Chem. Theory Comput., 2021, 17, 1701-1714
     DOI: 10.1021/acs.jctc.0c01306
   
   with help from (in alphabetical order)
   P. Atkinson, C. Bannwarth, F. Bohle, G. Brandenburg, E. Caldeweyher
   M. Checinski, S. Dohm, S. Ehlert, S. Ehrlich, I. Gerasimov, J. Koopman
   C. Lavinge, S. Lehtola, F. März, M. Müller, F. Musil, H. Neugebauer
   J. Pisarek, P. Pracht, J. Seibert, P. Shushkov, S. Spicher, M. Stahn
   T. Strunk, J. Stückrath, T. Rose, and J. Unsleber
   
 * started run on 2021/10/08 at 07:24:46.766     

           -------------------------------------------------
          |                Calculation Setup                |
           -------------------------------------------------

          program call               : xtb xtbopt.xyz --sp --alpb thf -P 6
          hostname                   : seskscpg010.prim.scp
          coordinate file            : xtbopt.xyz
          omp threads                :                     6
          number of atoms            :                   111
          number of electrons        :                   290
          charge                     :                     0
          spin                       :                   0.0
          first test random number   :      0.63685769826775

   ID    Z sym.   atoms
    1    7 N      1, 11, 91
    2    6 C      2-6, 10, 12-15, 23, 24, 28, 32, 34, 38, 44, 45, 49, 53, 55,
                  59, 65, 66, 70, 74, 76, 80, 86-89, 92, 93, 95, 99, 102-104,
                  106, 108
    3    1 H      7-9, 16-18, 20, 25-27, 29-31, 35-37, 39-41, 46-48, 50-52,
                  56-58, 60-62, 67-69, 71-73, 77-79, 81-85, 90, 94, 96-98,
                  100, 101, 105, 107, 109-111
    4   77 Ir     19
    5    5 B      21, 42, 63
    6    8 O      22, 33, 43, 54, 64, 75

molecular fragmentation (1/2 indicates fragments):
111111111111111111111111111111111111111111111111111111111111111111111111
111111111111122222222222222222222222222
# atoms in fragment 1/2:    85    26
 fragment masses (1/2) :      730.32      182.24
CMA distance (Bohr)    :   9.645
constraining FC (au)   :  0.0500

           -------------------------------------------------
          |                 G F N 2 - x T B                 |
           -------------------------------------------------

        Reference                      10.1021/acs.jctc.8b01176
      * Hamiltonian:
        H0-scaling (s, p, d)           1.850000    2.230000    2.230000
        zeta-weighting                 0.500000
      * Dispersion:
        s8                             2.700000
        a1                             0.520000
        a2                             5.000000
        s9                             5.000000
      * Repulsion:
        kExp                           1.500000    1.000000
        rExp                           1.000000
      * Coulomb:
        alpha                          2.000000
        third order                    shell-resolved
        anisotropic                    true
        a3                             3.000000
        a5                             4.000000
        cn-shift                       1.200000
        cn-exp                         4.000000
        max-rad                        5.000000

      * Solvation model:               ALPB
        Solvent                        thf
        Parameter file                 internal GFN2-xTB/ALPB
        Dielectric constant                7.6000E+00
        Reference state                gsolv [1 M gas/solution]
        Free energy shift                  5.3248E-03 Eh       3.3414E+00 kcal/mol
        Temperature                        2.9815E+02 K
        Density                            8.8300E-01 kg/L
        Solvent mass                       7.2106E+01 g/mol
        Interaction kernel             P16
        Born radius scaling (c1)           1.7311E+00
        Born radii integrator          GBOBC
        Born offset                        0.0000E+00 a0       0.0000E+00 AA
        H-bond correction              true
        Ion screening                  false
        Surface tension                    1.0000E-05 Eh       1.5569E+01 dyn/cm
        Grid points                               230 per atom
q/qsh data taken from xtbrestart
CAMM data taken from xtbrestart

          ...................................................
          :                      SETUP                      :
          :.................................................:
          :  # basis functions                 279          :
          :  # atomic orbitals                 278          :
          :  # shells                          166          :
          :  # electrons                       290          :
          :  max. iterations                   250          :
          :  Hamiltonian                  GFN2-xTB          :
          :  restarted?                       true          :
          :  GBSA solvation                   true          :
          :  PC potential                    false          :
          :  electronic temp.          300.0000000     K    :
          :  accuracy                    1.0000000          :
          :  -> integral cutoff          0.2500000E+02      :
          :  -> integral neglect         0.1000000E-07      :
          :  -> SCF convergence          0.1000000E-05 Eh   :
          :  -> wf. convergence          0.1000000E-03 e    :
          :  Broyden damping             0.4000000          :
          ...................................................

 iter      E             dE          RMSdq      gap      omega  full diag
   1   -160.0725191 -0.160073E+03  0.200E-05    0.81       0.0  T
   2   -160.0725191  0.233626E-10  0.229E-05    0.81     414.8  T
   3   -160.0725191 -0.276543E-10  0.155E-05    0.81     613.1  T

   *** convergence criteria satisfied after 3 iterations ***

         #    Occupation            Energy/Eh            Energy/eV
      -------------------------------------------------------------
         1        2.0000           -0.6764001             -18.4058
       ...           ...                  ...                  ...
       139        2.0000           -0.3551124              -9.6631
       140        2.0000           -0.3446435              -9.3782
       141        2.0000           -0.3341367              -9.0923
       142        2.0000           -0.3209276              -8.7329
       143        2.0000           -0.3161032              -8.6016
       144        2.0000           -0.3100680              -8.4374
       145        2.0000           -0.3087728              -8.4021 (HOMO)
       146        0.0000           -0.2791889              -7.5971 (LUMO)
       147                         -0.2504633              -6.8155
       148                         -0.2485653              -6.7638
       149                         -0.2243037              -6.1036
       150                         -0.2156739              -5.8688
       ...                                ...                  ...
       278                          3.5767877              97.3293
      -------------------------------------------------------------
                  HL-Gap            0.0295839 Eh            0.8050 eV
             Fermi-level           -0.2938725 Eh           -7.9967 eV

 SCC (total)                   0 d,  0 h,  0 min,  0.121 sec
 SCC setup                      ...        0 min,  0.002 sec (  1.988%)
 Dispersion                     ...        0 min,  0.003 sec (  2.263%)
 classical contributions        ...        0 min,  0.000 sec (  0.140%)
 integral evaluation            ...        0 min,  0.032 sec ( 26.291%)
 iterations                     ...        0 min,  0.036 sec ( 30.192%)
 molecular gradient             ...        0 min,  0.046 sec ( 38.449%)
 printout                       ...        0 min,  0.001 sec (  0.619%)

         :::::::::::::::::::::::::::::::::::::::::::::::::::::
         ::                     SUMMARY                     ::
         :::::::::::::::::::::::::::::::::::::::::::::::::::::
         :: total energy            -157.923394593361 Eh    ::
         :: total w/o Gsasa/hb      -157.880682435265 Eh    ::
         :: gradient norm              0.030652246861 Eh/a0 ::
         :: HOMO-LUMO gap              0.805017813739 eV    ::
         ::.................................................::
         :: SCC energy              -160.072519111107 Eh    ::
         :: -> isotropic ES            0.242303556584 Eh    ::
         :: -> anisotropic ES          0.015312073935 Eh    ::
         :: -> anisotropic XC          0.063428045869 Eh    ::
         :: -> dispersion             -0.157838265552 Eh    ::
         :: -> Gsolv                  -0.051778520221 Eh    ::
         ::    -> Gelec               -0.009066362126 Eh    ::
         ::    -> Gsasa               -0.045691129955 Eh    ::
         ::    -> Ghb                 -0.002345843584 Eh    ::
         ::    -> Gshift               0.005324815444 Eh    ::
         :: repulsion energy           2.138565107122 Eh    ::
         :: add. restraining           0.000000000000 Eh    ::
         :: total charge               0.000000000382 e     ::
         :::::::::::::::::::::::::::::::::::::::::::::::::::::

           -------------------------------------------------
          |                Property Printout                |
           -------------------------------------------------

    * Orbital Energies and Occupations

         #    Occupation            Energy/Eh            Energy/eV
      -------------------------------------------------------------
         1        2.0000           -0.6764001             -18.4058
       ...           ...                  ...                  ...
       133        2.0000           -0.3881942             -10.5633
       134        2.0000           -0.3877712             -10.5518
       135        2.0000           -0.3831833             -10.4269
       136        2.0000           -0.3820926             -10.3973
       137        2.0000           -0.3804639             -10.3530
       138        2.0000           -0.3781138             -10.2890
       139        2.0000           -0.3551124              -9.6631
       140        2.0000           -0.3446435              -9.3782
       141        2.0000           -0.3341367              -9.0923
       142        2.0000           -0.3209276              -8.7329
       143        2.0000           -0.3161032              -8.6016
       144        2.0000           -0.3100680              -8.4374
       145        2.0000           -0.3087728              -8.4021 (HOMO)
       146        0.0000           -0.2791889              -7.5971 (LUMO)
       147                         -0.2504633              -6.8155
       148                         -0.2485653              -6.7638
       149                         -0.2243037              -6.1036
       150                         -0.2156739              -5.8688
       151                         -0.2075679              -5.6482
       152                         -0.2070036              -5.6329
       153                         -0.2059539              -5.6043
       154                         -0.1927255              -5.2443
       155                         -0.1544182              -4.2019
       156                         -0.1299168              -3.5352
       ...                                ...                  ...
       278                          3.5767877              97.3293
      -------------------------------------------------------------
                  HL-Gap            0.0295839 Eh            0.8050 eV
             Fermi-level           -0.2938725 Eh           -7.9967 eV

     #   Z          covCN         q      C6AA      α(0)
     1   7 N        2.515    -0.125    23.749     7.237
     2   6 C        2.953     0.079    26.237     8.401
     3   6 C        2.918    -0.044    29.084     8.844
     4   6 C        2.924    -0.021    28.526     8.759
     5   6 C        2.915    -0.043    29.061     8.840
     6   6 C        2.893     0.050    26.869     8.499
     7   1 H        0.926     0.056     2.243     2.342
     8   1 H        0.926     0.057     2.233     2.337
     9   1 H        0.926     0.046     2.373     2.409
    10   6 C        2.952     0.075    26.314     8.414
    11   7 N        2.535    -0.132    23.887     7.258
    12   6 C        2.890     0.042    27.047     8.527
    13   6 C        2.915    -0.045    29.108     8.847
    14   6 C        2.922    -0.023    28.589     8.768
    15   6 C        2.919    -0.046    29.136     8.852
    16   1 H        0.926     0.046     2.369     2.407
    17   1 H        0.926     0.052     2.299     2.371
    18   1 H        0.926     0.078     2.004     2.214
    19  77 Ir       5.885    -0.149   387.428    36.399
    20   1 H        0.977     0.079     1.985     2.202
    21   5 B        2.624     0.402    16.062     6.777
    22   8 O        1.638    -0.409    21.025     6.189
    23   6 C        3.834     0.131    18.442     6.110
    24   6 C        3.755    -0.122    22.885     6.821
    25   1 H        0.925     0.055     2.261     2.351
    26   1 H        0.925     0.044     2.392     2.419
    27   1 H        0.925     0.050     2.319     2.382
    28   6 C        3.754    -0.107    22.601     6.779
    29   1 H        0.925     0.047     2.362     2.403
    30   1 H        0.925     0.040     2.453     2.449
    31   1 H        0.925     0.026     2.651     2.546
    32   6 C        3.839     0.132    18.425     6.107
    33   8 O        1.637    -0.407    20.990     6.184
    34   6 C        3.755    -0.119    22.831     6.813
    35   1 H        0.925     0.045     2.388     2.417
    36   1 H        0.925     0.047     2.360     2.403
    37   1 H        0.925     0.051     2.304     2.374
    38   6 C        3.754    -0.119    22.840     6.815
    39   1 H        0.925     0.045     2.379     2.412
    40   1 H        0.925     0.054     2.274     2.358
    41   1 H        0.925     0.045     2.384     2.415
    42   5 B        2.614     0.401    16.126     6.800
    43   8 O        1.637    -0.384    20.552     6.119
    44   6 C        3.829     0.129    18.470     6.115
    45   6 C        3.755    -0.123    22.912     6.825
    46   1 H        0.925     0.054     2.274     2.358
    47   1 H        0.925     0.052     2.296     2.369
    48   1 H        0.925     0.049     2.330     2.387
    49   6 C        3.755    -0.123    22.914     6.826
    50   1 H        0.925     0.047     2.355     2.400
    51   1 H        0.925     0.047     2.355     2.400
    52   1 H        0.925     0.054     2.270     2.356
    53   6 C        3.826     0.127    18.495     6.120
    54   8 O        1.637    -0.385    20.565     6.121
    55   6 C        3.755    -0.122    22.904     6.824
    56   1 H        0.925     0.050     2.316     2.380
    57   1 H        0.925     0.052     2.293     2.368
    58   1 H        0.925     0.048     2.347     2.396
    59   6 C        3.755    -0.123    22.914     6.825
    60   1 H        0.925     0.050     2.315     2.379
    61   1 H        0.925     0.050     2.324     2.384
    62   1 H        0.925     0.051     2.303     2.373
    63   5 B        2.626     0.397    16.106     6.783
    64   8 O        1.638    -0.367    20.225     6.071
    65   6 C        3.828     0.125    18.530     6.125
    66   6 C        3.755    -0.127    22.986     6.836
    67   1 H        0.925     0.058     2.225     2.333
    68   1 H        0.925     0.056     2.242     2.342
    69   1 H        0.925     0.049     2.335     2.390
    70   6 C        3.755    -0.126    22.970     6.834
    71   1 H        0.925     0.057     2.238     2.340
    72   1 H        0.925     0.054     2.276     2.359
    73   1 H        0.925     0.042     2.420     2.433
    74   6 C        3.832     0.126    18.510     6.121
    75   8 O        1.637    -0.384    20.545     6.118
    76   6 C        3.755    -0.126    22.983     6.836
    77   1 H        0.925     0.051     2.307     2.375
    78   1 H        0.925     0.046     2.375     2.410
    79   1 H        0.925     0.058     2.220     2.330
    80   6 C        3.755    -0.126    22.972     6.834
    81   1 H        0.925     0.051     2.303     2.373
    82   1 H        0.925     0.054     2.272     2.357
    83   1 H        0.925     0.051     2.302     2.373
    84   1 H        0.926     0.053     2.280     2.361
    85   1 H        0.926     0.051     2.313     2.378
    86   6 C        2.825    -0.044    29.087     8.837
    87   6 C        2.939    -0.017    28.423     8.744
    88   6 C        2.948     0.096    25.869     8.342
    89   6 C        2.909    -0.057    29.408     8.892
    90   1 H        0.925     0.019     2.755     2.596
    91   7 N        1.843    -0.252    27.413     7.759
    92   6 C        3.812    -0.079    21.998     6.676
    93   6 C        2.897     0.042    27.055     8.528
    94   1 H        0.926     0.022     2.709     2.574
    95   6 C        3.809    -0.068    21.788     6.644
    96   1 H        0.925     0.064     2.157     2.297
    97   1 H        0.924     0.071     2.071     2.250
    98   1 H        0.925     0.028     2.622     2.532
    99   6 C        2.969     0.016    27.652     8.625
   100   1 H        0.924     0.055     2.254     2.348
   101   1 H        0.924     0.052     2.294     2.369
   102   6 C        2.926    -0.039    28.974     8.827
   103   6 C        2.925    -0.042    29.046     8.838
   104   6 C        2.918    -0.035    28.879     8.812
   105   1 H        0.926     0.031     2.568     2.506
   106   6 C        2.918    -0.036    28.887     8.814
   107   1 H        0.926     0.030     2.582     2.513
   108   6 C        2.920    -0.039    28.978     8.828
   109   1 H        0.926     0.030     2.591     2.517
   110   1 H        0.926     0.031     2.567     2.506
   111   1 H        0.926     0.030     2.591     2.517

 Mol. C6AA /au·bohr⁶  :     132757.162462
 Mol. C8AA /au·bohr⁸  :    3499701.942976
 Mol. α(0) /au        :        566.976476


Wiberg/Mayer (AO) data.
largest (>0.10) Wiberg bond orders for each atom

 ---------------------------------------------------------------------------
     #   Z sym  total        # sym  WBO       # sym  WBO       # sym  WBO
 ---------------------------------------------------------------------------
     1   7 N    3.383 --     6 C    1.399     2 C    1.322    19 Ir   0.404
     2   6 C    3.979 --     3 C    1.351     1 N    1.322    10 C    1.084
     3   6 C    3.988 --     4 C    1.479     2 C    1.351     9 H    0.962
                             6 C    0.106
     4   6 C    3.986 --     3 C    1.479     5 C    1.391    84 H    0.969
     5   6 C    3.979 --     6 C    1.452     4 C    1.391     8 H    0.968
     6   6 C    3.977 --     5 C    1.452     1 N    1.399     7 H    0.957
                             3 C    0.106
     7   1 H    0.996 --     6 C    0.957
     8   1 H    0.996 --     5 C    0.968
     9   1 H    0.997 --     3 C    0.962
    10   6 C    3.979 --    15 C    1.356    11 N    1.311     2 C    1.084
    11   7 N    3.391 --    12 C    1.394    10 C    1.311    19 Ir   0.404
    12   6 C    3.973 --    13 C    1.452    11 N    1.394    18 H    0.946
                            15 C    0.105
    13   6 C    3.982 --    12 C    1.452    14 C    1.391    17 H    0.969
    14   6 C    3.984 --    15 C    1.475    13 C    1.391    85 H    0.969
    15   6 C    3.989 --    14 C    1.475    10 C    1.356    16 H    0.962
                            12 C    0.105
    16   1 H    0.997 --    15 C    0.962
    17   1 H    0.997 --    13 C    0.969
    18   1 H    0.994 --    12 C    0.946
    19  77 Ir   5.114 --    63 B    0.877    42 B    0.866    21 B    0.728
                            86 C    0.587    20 H    0.524    11 N    0.404
                             1 N    0.404
    20   1 H    0.991 --    19 Ir   0.524    86 C    0.351
    21   5 B    3.264 --    33 O    1.106    22 O    1.089    19 Ir   0.728
    22   8 O    2.190 --    21 B    1.089    23 C    0.944
    23   6 C    3.945 --    24 C    0.996    28 C    0.990    22 O    0.944
                            32 C    0.941
    24   6 C    3.994 --    23 C    0.996    26 H    0.984    27 H    0.983
                            25 H    0.982
    25   1 H    0.997 --    24 C    0.982
    26   1 H    0.997 --    24 C    0.984
    27   1 H    0.997 --    24 C    0.983
    28   6 C    3.997 --    23 C    0.990    31 H    0.985    29 H    0.984
                            30 H    0.984
    29   1 H    0.997 --    28 C    0.984
    30   1 H    0.998 --    28 C    0.984
    31   1 H    0.999 --    28 C    0.985
    32   6 C    3.941 --    38 C    0.997    34 C    0.991    23 C    0.941
                            33 O    0.940
    33   8 O    2.197 --    21 B    1.106    32 C    0.940
    34   6 C    3.995 --    32 C    0.991    36 H    0.984    35 H    0.983
                            37 H    0.982
    35   1 H    0.998 --    34 C    0.983
    36   1 H    0.997 --    34 C    0.984
    37   1 H    0.997 --    34 C    0.982
    38   6 C    3.994 --    32 C    0.997    41 H    0.984    39 H    0.983
                            40 H    0.983
    39   1 H    0.998 --    38 C    0.983
    40   1 H    0.997 --    38 C    0.983
    41   1 H    0.997 --    38 C    0.984
    42   5 B    3.340 --    43 O    1.115    54 O    1.100    19 Ir   0.866
    43   8 O    2.227 --    42 B    1.115    44 C    0.938
    44   6 C    3.936 --    45 C    0.996    49 C    0.991    43 O    0.938
                            53 C    0.937
    45   6 C    3.992 --    44 C    0.996    48 H    0.983    47 H    0.982
                            46 H    0.979
    46   1 H    0.997 --    45 C    0.979
    47   1 H    0.997 --    45 C    0.982
    48   1 H    0.996 --    45 C    0.983
    49   6 C    3.993 --    44 C    0.991    50 H    0.983    51 H    0.982
                            52 H    0.978
    50   1 H    0.997 --    49 C    0.983
    51   1 H    0.997 --    49 C    0.982
    52   1 H    0.997 --    49 C    0.978
    53   6 C    3.937 --    55 C    0.995    59 C    0.992    44 C    0.937
                            54 O    0.935
    54   8 O    2.226 --    42 B    1.100    53 C    0.935
    55   6 C    3.994 --    53 C    0.995    58 H    0.983    57 H    0.983
                            56 H    0.983
    56   1 H    0.997 --    55 C    0.983
    57   1 H    0.997 --    55 C    0.983
    58   1 H    0.996 --    55 C    0.983
    59   6 C    3.994 --    53 C    0.992    61 H    0.983    62 H    0.983
                            60 H    0.978
    60   1 H    0.997 --    59 C    0.978
    61   1 H    0.996 --    59 C    0.983
    62   1 H    0.997 --    59 C    0.983
    63   5 B    3.367 --    64 O    1.125    75 O    1.107    19 Ir   0.877
    64   8 O    2.246 --    63 B    1.125    65 C    0.939
    65   6 C    3.936 --    66 C    0.995    70 C    0.992    64 O    0.939
                            74 C    0.936
    66   6 C    3.992 --    65 C    0.995    69 H    0.983    67 H    0.981
                            68 H    0.978
    67   1 H    0.997 --    66 C    0.981
    68   1 H    0.997 --    66 C    0.978
    69   1 H    0.996 --    66 C    0.983
    70   6 C    3.994 --    65 C    0.992    73 H    0.984    72 H    0.983
                            71 H    0.982
    71   1 H    0.996 --    70 C    0.982
    72   1 H    0.996 --    70 C    0.983
    73   1 H    0.998 --    70 C    0.984
    74   6 C    3.935 --    80 C    0.996    76 C    0.991    75 O    0.936
                            65 C    0.936
    75   8 O    2.222 --    63 B    1.107    74 C    0.936
    76   6 C    3.993 --    74 C    0.991    77 H    0.983    78 H    0.982
                            79 H    0.979
    77   1 H    0.996 --    76 C    0.983
    78   1 H    0.998 --    76 C    0.982
    79   1 H    0.997 --    76 C    0.979
    80   6 C    3.993 --    74 C    0.996    83 H    0.983    82 H    0.983
                            81 H    0.982
    81   1 H    0.997 --    80 C    0.982
    82   1 H    0.997 --    80 C    0.983
    83   1 H    0.996 --    80 C    0.983
    84   1 H    0.996 --     4 C    0.969
    85   1 H    0.996 --    14 C    0.969
    86   6 C    3.946 --    87 C    1.417    88 C    1.317    19 Ir   0.587
                            20 H    0.351    93 C    0.105
    87   6 C    3.990 --    86 C    1.417    89 C    1.413    90 H    0.962
    88   6 C    3.974 --    91 N    1.423    86 C    1.317    92 C    1.010
                            89 C    0.102
    89   6 C    3.988 --    93 C    1.439    87 C    1.413    94 H    0.970
                            88 C    0.102
    90   1 H    0.999 --    87 C    0.962
    91   7 N    3.063 --    88 C    1.423    93 C    1.412
    92   6 C    3.991 --    88 C    1.010    95 C    0.989    97 H    0.947
                            96 H    0.938
    93   6 C    3.980 --    89 C    1.439    91 N    1.412    98 H    0.963
                            86 C    0.105
    94   1 H    0.999 --    89 C    0.970
    95   6 C    3.994 --    99 C    1.014    92 C    0.989   101 H    0.972
                           100 H    0.965
    96   1 H    0.996 --    92 C    0.938
    97   1 H    0.995 --    92 C    0.947
    98   1 H    0.996 --    93 C    0.963
    99   6 C    3.988 --   103 C    1.414   102 C    1.405    95 C    1.014
                           108 C    0.110
   100   1 H    0.996 --    95 C    0.965
   101   1 H    0.997 --    95 C    0.972
   102   6 C    3.992 --   104 C    1.450    99 C    1.405   105 H    0.969
                           106 C    0.111
   103   6 C    3.991 --   106 C    1.441    99 C    1.414   107 H    0.967
                           104 C    0.109
   104   6 C    3.992 --   102 C    1.450   108 C    1.432   109 H    0.971
                           103 C    0.109
   105   1 H    0.999 --   102 C    0.969
   106   6 C    3.992 --   108 C    1.442   103 C    1.441   110 H    0.971
                           102 C    0.111
   107   1 H    0.999 --   103 C    0.967
   108   6 C    3.991 --   106 C    1.442   104 C    1.432   111 H    0.972
                            99 C    0.110
   109   1 H    0.999 --   104 C    0.971
   110   1 H    0.999 --   106 C    0.971
   111   1 H    0.999 --   108 C    0.972
 ---------------------------------------------------------------------------

Topologies differ in total number of bonds
Writing topology from bond orders to xtbtopo.mol

molecular dipole:
                 x           y           z       tot (Debye)
 q only:       -0.010       0.372      -1.360
   full:       -1.756       0.474      -2.129       7.116
molecular quadrupole (traceless):
                xx          xy          yy          xz          yz          zz
 q only:       16.159       1.973       5.837      -0.458      13.338     -21.996
  q+dip:       21.547       6.662      10.294      -8.936      19.986     -31.841
   full:       17.650       6.372      11.818      -9.704      15.330     -29.467


           -------------------------------------------------
          | TOTAL ENERGY             -157.923394593361 Eh   |
          | GRADIENT NORM               0.030652246861 Eh/α |
          | HOMO-LUMO GAP               0.805017813739 eV   |
           -------------------------------------------------

------------------------------------------------------------------------
 * finished run on 2021/10/08 at 07:24:46.933     
------------------------------------------------------------------------
 total:
 * wall-time:     0 d,  0 h,  0 min,  0.167 sec
 *  cpu-time:     0 d,  0 h,  0 min,  0.977 sec
 * ratio c/w:     5.851 speedup
 SCF:
 * wall-time:     0 d,  0 h,  0 min,  0.122 sec
 *  cpu-time:     0 d,  0 h,  0 min,  0.731 sec
 * ratio c/w:     5.976 speedup

