111
 energy: -157.744230879703 gnorm: 0.135862116787 xtb: 6.4.0 (f63f532)
N        -0.96510000000000   -2.11530000000000   -0.24090000000000
C        -2.24700000000000   -1.69840000000000   -0.36220000000000
C        -3.14040000000000   -2.36820000000000   -1.21200000000000
C        -2.70220000000000   -3.47560000000001   -1.93050000000000
C        -1.37780000000001   -3.89880000000000   -1.78759999999999
C        -0.54290000000000   -3.18670000000000   -0.93510000000000
H         0.49810000000000   -3.45630000000000   -0.78940000000000
H        -0.99570000000000   -4.76030000000000   -2.32769999999999
H        -4.16500000000000   -2.02890000000000   -1.31830000000000
C        -2.62130000000000   -0.50950000000000    0.44099999999999
N        -1.62600000000000    0.07330000000000    1.16020000000000
C        -1.89679999999999    1.15240000000001    1.91689999999999
C        -3.17230000000000    1.70330000000000    1.99650000000000
C        -4.20510000000000    1.11740000000000    1.26270000000000
C        -3.92610000000000    0.00250000000000    0.47820000000000
H        -4.71960000000000   -0.46420000000000   -0.09520000000000
H        -3.34630000000000    2.57510000000000    2.62070000000000
H        -1.04450000000000    1.57420000000000    2.43690000000000
Ir        0.42150000000000   -0.81650000000000    0.91330000000000
H         0.87260000000000   -2.23030000000000    1.54050000000000
B         0.50670000000000    0.41560000000000   -0.81540000000000
O         0.19500000000000   -0.04700000000000   -2.09150000000000
C         0.00650000000000    1.10040000000000   -2.95430000000000
C         0.49020000000001    0.74740000000000   -4.35780000000000
H         1.51609999999999    0.37380000000000   -4.33700000000000
H         0.44730000000000    1.62240000000000   -5.01670000000000
H        -0.14740000000000   -0.03389999999999   -4.78430000000000
C        -1.50119999999999    1.39560000000000   -2.96670000000000
H        -1.75370000000000    2.21460000000000   -3.64850000000000
H        -2.03200000000000    0.49450000000000   -3.28930000000000
H        -1.85170000000000    1.65210000000000   -1.96220000000000
C         0.84230000000000    2.20670000000000   -2.22040000000000
O         0.75200000000000    1.78260000000000   -0.83690000000000
C         2.32930000000001    2.18620000000000   -2.59900000000001
H         2.74130000000000    1.18500000000000   -2.45750000000000
H         2.48870000000000    2.51300000000000   -3.63180000000000
H         2.87200000000000    2.86270000000000   -1.93200000000000
C         0.28440000000000    3.62290000000000   -2.33660000000000
H        -0.72650000000001    3.69040000000000   -1.92910000000000
H         0.92130000000000    4.31480000000000   -1.77610000000000
H         0.26430000000000    3.94810000000000   -3.38320000000000
B         1.56300000000000    0.60960000000000    1.84840000000000
O         2.92780000000001    0.55230000000000    2.15020000000000
C         3.36329999999999    1.88660000000000    2.50260000000001
C         4.53140000000000    1.78590000000000    3.47740000000000
H         4.27910000000000    1.16090000000000    4.33690000000000
H         5.39390000000000    1.33790000000000    2.97340000000000
H         4.82390000000000    2.77870000000000    3.83820000000000
C         3.79700000000000    2.56850000000000    1.19670000000000
H         4.20020000000000    3.57090000000000    1.37680000000000
H         4.56740000000000    1.95560000000000    0.72110000000000
H         2.95240000000000    2.63260000000000    0.50540000000000
C         2.05040000000000    2.50090000000000    3.09320000000000
O         1.03750000000000    1.81620000000000    2.31910000000000
C         1.89100000000000    4.00450000000000    2.88650000000000
H         1.87290000000000    4.25440000000000    1.82410000000000
H         0.94940000000000    4.34260000000000    3.33170000000000
H         2.71080000000000    4.55150000000000    3.36630000000000
C         1.82470000000001    2.13200000000000    4.56520000000000
H         1.92610000000000    1.05330000000000    4.71320000000000
H         2.52610000000000    2.65280000000000    5.22540000000000
H         0.80630000000000    2.41580000000000    4.84900000000000
B         2.27820000000000   -1.33090000000000    0.17410000000000
O         2.89460000000000   -2.57740000000000    0.38450000000000
C         4.26930000000000   -2.48200000000000   -0.07210000000000
C         5.10900000000000   -2.05380000000000    1.14010000000001
H         4.76350000000000   -1.08740000000000    1.51750000000000
H         4.98050000000000   -2.79470000000000    1.93590000000000
H         6.17420000000000   -1.99290000000000    0.89300000000000
C         4.71950000000000   -3.84660000000000   -0.58470000000000
H         4.75280000000000   -4.56130000000000    0.24420000000000
H         5.72330000000000   -3.78370000000000   -1.02010000000000
H         4.03500000000000   -4.23600000000000   -1.34170000000000
C         4.16440000000000   -1.36220000000000   -1.16300000000000
O         3.08520000000000   -0.55030000000000   -0.65400000000000
C         5.40720000000001   -0.48870000000000   -1.31550000000000
H         6.27320000000000   -1.09010000000000   -1.61530000000000
H         5.23300000000000    0.26930000000000   -2.08590000000000
H         5.64270000000000    0.02650000000000   -0.38240000000000
C         3.71800000000000   -1.89830000000000   -2.53110000000000
H         2.82530000000000   -2.52160000000000   -2.42740000000000
H         3.46090000000000   -1.05250000000000   -3.17550000000000
H         4.50570000000001   -2.48290000000000   -3.01790000000000
H        -3.38499999999999   -4.00129999999999   -2.59310000000000
H        -5.21400000000000    1.52080000000000    1.29960000000000
C         0.23589999999999   -1.68140000000000    2.96029999999999
C        -0.66398040956333   -2.37868622155877    3.75758066810485
C         1.53780354984665   -1.51185803265668    3.70227122605660
C        -0.50466044511794   -2.56684880608502    5.13463581406382
H        -1.53508350368914   -2.83105145115934    3.29942735495855
N         1.54693129941883   -1.46160446318030    5.03785394154844
C         3.08096426877986   -1.63458529721685    3.37366389701344
C         0.54990177076976   -1.94411147653672    5.76756675191464
H        -1.16305036952175   -3.21158021242975    5.69976715501596
C         4.30080976952878   -1.18431562004051    4.31725964015350
H         3.22869317438674   -1.28166587919276    2.36246048714086
H         3.18756875778934   -2.72449511834410    3.32181792833348
H         0.71486588013733   -1.92101766024302    6.83950001111304
C         5.66153233986448   -0.43353396585527    4.09716630099839
H         4.64833967930262   -2.11149904612336    4.78833644557573
H         3.84109381405075   -0.61731491789464    5.13354198967072
C         6.58868461263403   -0.43866903638126    3.03753137131205
C         6.07884063825639    0.50372062863183    5.07529696922940
C         7.45151287734687    0.62030266190705    2.73884756972818
H         6.65950042944806   -1.25822741810598    2.35195292308572
C         6.96575020857359    1.55303637361982    4.83136958285547
H         5.58047021028343    0.54415941445459    6.03684839681887
C         7.56987294662672    1.70654873234240    3.59026571627910
H         7.98012320501412    0.63206217401327    1.79118661094662
H         7.10693912673703    2.33189116364956    5.57190948927146
H         8.08742977949224    2.61536896552627    3.30030872813904
111
 energy: -157.775711461597 gnorm: 0.102448877200 xtb: 6.4.0 (f63f532)
N        -0.96619658321880   -2.11164016052495   -0.24265875583228
C        -2.24348138511007   -1.69780325774018   -0.35712716251879
C        -3.13590510322405   -2.37040115559503   -1.20225900858831
C        -2.70303037989647   -3.47259848347202   -1.91854655826967
C        -1.38244668893788   -3.89166867705417   -1.77915241988764
C        -0.55429890181859   -3.17764684639382   -0.93381986033926
H         0.48223754411446   -3.45317080814058   -0.78708229640612
H        -1.00368066083691   -4.75043576470877   -2.31660152255588
H        -4.15703632023526   -2.03547395767416   -1.30797025453042
C        -2.61560583886993   -0.51726899202964    0.44476678931236
N        -1.62441544314177    0.06432099296336    1.15846128424818
C        -1.90075976933448    1.13761517824836    1.90566187296162
C        -3.16818217478639    1.68852559863403    1.99302645572830
C        -4.19933622544961    1.10360587930713    1.26563643908725
C        -3.91861089779131   -0.00506797992583    0.48533376205658
H        -4.71102945107301   -0.46808888293447   -0.08365751838536
H        -3.34234547152043    2.55495604378208    2.61721580820097
H        -1.05543579185247    1.55976659227758    2.43081816525560
Ir        0.42150000000000   -0.81650000000000    0.91330000000000
H         0.87260000000000   -2.23030000000000    1.54050000000000
B         0.50003192996977    0.41763893079030   -0.79801989355347
O         0.18041718852899   -0.03946911644676   -2.07058872466782
C         0.00583865437119    1.09497783435483   -2.94667409981827
C         0.48335425210311    0.74613042960426   -4.35326874704229
H         1.50377909877621    0.37213721881531   -4.33280264333100
H         0.43692065265884    1.62016436886097   -5.00391978136924
H        -0.15341535657072   -0.03213762104976   -4.77354682561870
C        -1.50107340264975    1.39317625844402   -2.96517622273132
H        -1.74786711108994    2.20672629440031   -3.64617236533180
H        -2.03093151677709    0.49516870875687   -3.28430865849087
H        -1.84704696403269    1.64653656184468   -1.96235387189860
C         0.83076969957617    2.20468907017369   -2.21558823803623
O         0.75331657014480    1.77548856929142   -0.83900281960598
C         2.31541618718807    2.18910780347943   -2.60126547429313
H         2.72301438293615    1.19040758287439   -2.45445043070624
H         2.46997985584315    2.51279804545539   -3.63011370937832
H         2.85756643231170    2.86247167889144   -1.93770308527703
C         0.27623409387507    3.62106702918836   -2.33792421458162
H        -0.72790405240531    3.68727502530409   -1.92609437717372
H         0.91344803914750    4.30600185262216   -1.77916774594057
H         0.25694374819704    3.93838817523942   -3.38087525070744
B         1.54945465895409    0.64299503776197    1.83774465709345
O         2.91275627592916    0.62370372685541    2.09249725665706
C         3.32557960817581    1.94307605941829    2.47379109999607
C         4.46854731014717    1.87548299321033    3.44621028305501
H         4.20409432234711    1.26048414562387    4.29280746007132
H         5.30575265809648    1.42216439573450    2.93052577489422
H         4.78342884620608    2.84759037023203    3.81288984792955
C         3.78888623122539    2.59887128112923    1.17746198396866
H         4.19729678661789    3.58901132130314    1.36575449145093
H         4.55710121334774    1.97078155482649    0.72515695298433
H         2.94645971866343    2.64419707681507    0.49100180984273
C         2.02389327356326    2.52119425658580    3.08445971175736
O         1.01229173885479    1.82286910873755    2.33084748184547
C         1.87891426278475    4.02062653679578    2.88726298711582
H         1.86098796617515    4.26035928381164    1.82775567038549
H         0.94367480138325    4.35156172431939    3.33481066980977
H         2.70571812734676    4.54805033379126    3.36383732884692
C         1.82544451618806    2.14102316844864    4.55850826148346
H         1.93132794719779    1.06506641210606    4.69778697333389
H         2.52893638770726    2.65969177694268    5.20819489801388
H         0.81254111204610    2.41643732947333    4.85275673739816
B         2.27820000000000   -1.33089999999999    0.17410000000000
O         2.89288298926088   -2.56988942800207    0.37266782509400
C         4.25610907911197   -2.49349537113710   -0.09987584732058
C         5.11531446912783   -2.07346980503602    1.08740521056186
H         4.79119467119315   -1.10000930472757    1.45003982811091
H         4.99160181713412   -2.79305254482549    1.89757052353448
H         6.16540389790130   -2.03140201117265    0.80795015822478
C         4.71871447730083   -3.85414268126115   -0.59920880508620
H         4.75111466458025   -4.55346103565577    0.23580323288522
H         5.71821217891460   -3.77888675494012   -1.02744307488405
H         4.03498475364739   -4.24358177309263   -1.34730600198041
C         4.16223952999947   -1.35938455058920   -1.16742466830451
O         3.07528961898143   -0.56203733566938   -0.65952010948250
C         5.40646003986118   -0.48908721448063   -1.31988745546712
H         6.26443623622020   -1.09127088182196   -1.61861817126546
H         5.22823962078380    0.26497480885343   -2.08584117547926
H         5.63521063980810    0.02468834180077   -0.38967260628925
C         3.72005493779368   -1.89711032171955   -2.53419622694451
H         2.82896112169030   -2.51440268912261   -2.42387744160751
H         3.46117061588800   -1.05482904817245   -3.17450707500224
H         4.50801858973621   -2.47534467693753   -3.01445767122946
H        -3.38166705798616   -3.99789477481211   -2.57793280951906
H        -5.20359923838416    1.50621145675740    1.30525139566394
C         0.23589999999997   -1.68140000000000    2.96030000000000
C        -0.67932155393294   -2.36764709629335    3.74678698777965
C         1.54132465562145   -1.50347172420268    3.73437697111436
C        -0.52893906318424   -2.55712129056425    5.12729295003617
H        -1.55246546322195   -2.81008192471807    3.28365318900570
N         1.53507914342085   -1.46952228821090    5.06079528747075
C         3.08513727460524   -1.65590390533908    3.35632825480950
C         0.52667375292826   -1.94493007949488    5.76863259968891
H        -1.19655943755228   -3.19670350926621    5.68546306904411
C         4.29794365554461   -1.21167265347172    4.34792841866921
H         3.21991303697096   -1.28367095926067    2.35792610518652
H         3.17146944303709   -2.74562791029527    3.30489042831866
H         0.68010790445218   -1.92589246421821    6.84092856757707
C         5.66604985144087   -0.44997767302805    4.10945568335502
H         4.63511369316570   -2.14294962862942    4.81064106780054
H         3.82609737154154   -0.64234114379001    5.15256154424152
C         6.58789486712136   -0.46472505358782    3.04762740312134
C         6.07484051763528    0.48514284360687    5.09282391861000
C         7.45608338300720    0.59000191439748    2.75606528522137
H         6.64997338187521   -1.28072963483683    2.36651774061932
C         6.97049828489105    1.52364893394043    4.85110291065705
H         5.57141340322965    0.52098933187018    6.04978087935213
C         7.57793151316517    1.67043688366918    3.61143135298561
H         7.98528597018047    0.59918609211028    1.81025995949574
H         7.11261593192384    2.29903964914128    5.59219127463077
H         8.09994369548637    2.57599916687452    3.32382292145944
111
 energy: -157.793965060932 gnorm: 0.094926795042 xtb: 6.4.0 (f63f532)
N        -0.96475745910040   -2.11106606987894   -0.24117465187589
C        -2.23981483955594   -1.70010950822369   -0.34976682867174
C        -3.13481814661717   -2.37401450540722   -1.18962917217025
C        -2.70698435811208   -3.47261680075755   -1.90617396657504
C        -1.38675911386555   -3.88952937847998   -1.77090921888475
C        -0.56138416747851   -3.17353805029625   -0.93037429728243
H         0.47305876836002   -3.45280761051432   -0.78668893501216
H        -1.01147327600534   -4.74662475714321   -2.30667435307032
H        -4.15469566876776   -2.04213211414502   -1.29040733959391
C        -2.60931931455625   -0.52767477759562    0.44937977667302
N        -1.62023033805595    0.05193580863832    1.15982454508099
C        -1.90174934396146    1.11951582824704    1.90233594403747
C        -3.16446302081317    1.67116348424105    1.99520864084204
C        -4.19620760061389    1.08576521589775    1.27134557349788
C        -3.91277718437150   -0.01818988062827    0.49299798760899
H        -4.70412856892375   -0.48161468084522   -0.07205679740643
H        -3.33817775940550    2.53397179393133    2.61890501859331
H        -1.06193313428466    1.54625469516708    2.42892468674894
Ir        0.42150000000000   -0.81650000000000    0.91330000000000
H         0.87260000000000   -2.23030000000000    1.54050000000000
B         0.49265502827205    0.42273567096261   -0.78047012571398
O         0.16148245097689   -0.03555496993694   -2.04817645070092
C        -0.00264490740820    1.08770657292572   -2.93270015386250
C         0.47313362372469    0.73969228203343   -4.34065397678660
H         1.49106838908715    0.36603712693121   -4.32464526155994
H         0.42134844907673    1.61644187658817   -4.98175892297292
H        -0.16573643409353   -0.03477381740093   -4.75762785072645
C        -1.50882076342568    1.38969931845615   -2.96047019073330
H        -1.74606341984417    2.19991712754274   -3.64322921771868
H        -2.03639874986622    0.49243636894669   -3.27813609311752
H        -1.85087265350576    1.64231056857160   -1.95842408383520
C         0.81711521308681    2.20069811717512   -2.20710944635267
O         0.75235879987845    1.77319704759494   -0.83587716647406
C         2.29899446198256    2.19159186957151   -2.60352340225099
H         2.70349058844314    1.19418995237451   -2.45203787605802
H         2.44285055234953    2.51152542267303   -3.63172320174825
H         2.84026387955184    2.86661786249899   -1.94486865272640
C         0.26092737986691    3.61617788899871   -2.33503199348916
H        -0.73895326484327    3.68413594330390   -1.91938642843156
H         0.90161400792718    4.29774350809581   -1.78154107055346
H         0.24204094634118    3.92247573136242   -3.37763451065510
B         1.53355636262559    0.67453036528686    1.83112170751837
O         2.89432330655976    0.68007927896282    2.04414739111215
C         3.29525338028587    1.98873847124019    2.44656253831409
C         4.43227162550490    1.93719979223586    3.42075460953032
H         4.15624337748957    1.33223877306668    4.26664893953205
H         5.27063865928063    1.48620310949096    2.91236073849806
H         4.73516562359009    2.91382069203092    3.77526212683727
C         3.76415591946253    2.65061002140360    1.15645566805438
H         4.18449145476327    3.63232077725386    1.33981109717528
H         4.53045063106913    2.00642648449112    0.72694840421222
H         2.93243633807491    2.68268147598738    0.46024645664117
C         1.99608957663061    2.54619085854567    3.06494068138699
O         0.98119921080957    1.83270397356411    2.33895689470831
C         1.85074164336848    4.04529000928778    2.88389108941348
H         1.83443944021107    4.28310904217407    1.82686261653410
H         0.92430260506115    4.37923617625508    3.33858679233259
H         2.68873043989254    4.55015232329588    3.35821506184972
C         1.82413113576845    2.15941990342736    4.54356864457364
H         1.93772185568564    1.08436723394698    4.67195894440125
H         2.53161173121627    2.67820326601811    5.18310958680208
H         0.81480865742005    2.42371809092568    4.85246567112186
B         2.27820000000000   -1.33089999999998    0.17409999999999
O         2.88947123382340   -2.56654000274808    0.35716951469246
C         4.24195249721777   -2.50280485663505   -0.12941145764476
C         5.12928788613679   -2.08912683054064    1.03190883999619
H         4.82469599977876   -1.10684506808672    1.38038727336067
H         5.00918941443332   -2.79336405100464    1.85197023190908
H         6.16788597125678   -2.07057065025396    0.71650078938112
C         4.70662458306521   -3.86237942467579   -0.62787613590762
H         4.74426802682843   -4.54707739790718    0.21543674172970
H         5.70441487276815   -3.77500054920621   -1.04867847054841
H         4.02788844197030   -4.26272955910122   -1.36993078756995
C         4.15112295527160   -1.35957390530533   -1.18104088676003
O         3.06297916789361   -0.57137864339815   -0.66817955245355
C         5.39732866812090   -0.49007310639996   -1.32806812684030
H         6.24969212703681   -1.09450926000967   -1.62511955006158
H         5.21798424884534    0.26136495447703   -2.09212419143412
H         5.62287758961587    0.02391736364589   -0.39986142390455
C         3.71627457981866   -1.89311573019126   -2.55010519909601
H         2.82809348752886   -2.50866975324796   -2.43101663155821
H         3.45687289072665   -1.05285645840512   -3.18826796357411
H         4.50871201671254   -2.46734982104671   -3.01957013350313
H        -3.38488577105031   -3.99887225498949   -2.56054519870403
H        -5.19826301883114    1.48563239503865    1.31487006007379
C         0.23589999999994   -1.68140000000001    2.96030000000003
C        -0.70160601670795   -2.35030379308741    3.72903958379986
C         1.54104651446438   -1.51301765808519    3.75988762667821
C        -0.57109586197950   -2.53757414112376    5.11491509979137
H        -1.57849736166823   -2.77580642227478    3.25653339803111
N         1.51808031326284   -1.48647027578048    5.07573012800013
C         3.07910045949205   -1.66015467714601    3.35100258077055
C         0.48871923232395   -1.94520163573236    5.76525340431546
H        -1.25720454522757   -3.16472559956334    5.66424356948394
C         4.28151653271188   -1.23518160448027    4.37047225091768
H         3.21244298960366   -1.25314748827265    2.36955683773429
H         3.15977990709890   -2.74792727614617    3.27908450365931
H         0.62490015743201   -1.93119330423285    6.84017592572113
C         5.63176465008942   -0.44624951829976    4.11115366032270
H         4.61262376228749   -2.17074053990621    4.82567225452100
H         3.80044561111054   -0.66381666602123    5.16339181704356
C         6.54862015568777   -0.48588193897443    3.04966728376356
C         6.02644740014979    0.48461207192317    5.09741004325756
C         7.44008149892975    0.55198033816850    2.77459113394247
H         6.60445758938941   -1.31161043205571    2.37929653390519
C         6.94863140942876    1.49840454087908    4.86665032756482
H         5.53598922777739    0.49710582716571    6.06034437830936
C         7.57423932915865    1.62474879550960    3.63534348475110
H         7.99066084120058    0.54479445884007    1.84128210349990
H         7.11833272958766    2.25509737277037    5.62068287877596
H         8.13071984130582    2.51334782830327    3.36068203620421
111
 energy: -157.809282231677 gnorm: 0.093629034037 xtb: 6.4.0 (f63f532)
N        -0.96055103849834   -2.11361948446119   -0.23991117566446
C        -2.23680647097166   -1.70591402597599   -0.34233294530674
C        -3.13654673407873   -2.38118267706206   -1.17626746655326
C        -2.71251135773215   -3.47857881412578   -1.89435918276722
C        -1.39017428637110   -3.89405156091416   -1.76460877792480
C        -0.56237380842410   -3.17561544450931   -0.92865958604400
H         0.47187411742114   -3.45710624343806   -0.78939994777452
H        -1.01779060776795   -4.75082994200797   -2.30031318385844
H        -4.15704536049949   -2.05037895338224   -1.26987515250512
C        -2.60470801128771   -0.53950220983112    0.45587532963139
N        -1.61505420774286    0.03991941894666    1.16439338760087
C        -1.90060359575333    1.10480255532116    1.90616299840997
C        -3.16305570192915    1.65482737722003    2.00275364700923
C        -4.19646772713291    1.06705223192811    1.28103035428172
C        -3.91011998561721   -0.03431397651421    0.50247273836312
H        -4.70032427393552   -0.50066634456795   -0.06080418982925
H        -3.33645686619094    2.51563019288364    2.62696628746969
H        -1.06498714439977    1.53587615721747    2.43461327295695
Ir        0.42150000000000   -0.81650000000001    0.91330000000000
H         0.87260000000000   -2.23030000000000    1.54050000000000
B         0.48535347740800    0.42865418535295   -0.76517118282743
O         0.14122155416094   -0.03549343676059   -2.02781807417931
C        -0.01671732155736    1.07976911553856   -2.91665856033474
C         0.45939360182313    0.73012200937898   -4.32479726907912
H         1.47707335495829    0.35668595468030   -4.31323405898834
H         0.40386320478136    1.61032178926583   -4.96004863646323
H        -0.18208820706263   -0.04215859947596   -4.74075003160732
C        -1.52231600681713    1.38561044206082   -2.95286314208281
H        -1.75087001781688    2.19433969844480   -3.63899785475027
H        -2.04855956856240    0.48808739223847   -3.27061087963083
H        -1.86461943324322    1.64015770620326   -1.95194524225727
C         0.80200431334257    2.19686857513142   -2.19753178447342
O         0.74974326094594    1.77494865588173   -0.82870488156476
C         2.28110707554798    2.19335222590168   -2.60602027975108
H         2.68697785289826    1.19739347236125   -2.45105870122147
H         2.41276298471798    2.50892674632529   -3.63642145242660
H         2.82303609229983    2.87403687096576   -1.95451444525670
C         0.24157730119576    3.61096200053712   -2.32997610339887
H        -0.75613594576234    3.68110083593708   -1.91033876083487
H         0.88609561670280    4.29404216457407   -1.78351910874235
H         0.22004305742324    3.90740436347654   -3.37473352107602
B         1.51555920453835    0.70231708011973    1.82047742549819
O         2.87500071740930    0.73040915043715    1.99877994961424
C         3.26243724432539    2.03744716060252    2.41270149574950
C         4.40154023463553    2.00129977615718    3.39093972785956
H         4.12463430391853    1.40409406370004    4.24293956959048
H         5.24731307286427    1.55464502615810    2.89042157133952
H         4.68328175784841    2.99196153454830    3.72945253699292
C         3.73550721467126    2.71004298878153    1.12614621253239
H         4.16023692811901    3.68946117597453    1.30722076177351
H         4.50354528904614    2.05875498658920    0.70977072192163
H         2.91166194128010    2.73729073512704    0.42151048122494
C         1.96260350617273    2.57465512199154    3.04748724864942
O         0.94956419958769    1.84619480670795    2.33980072538533
C         1.81379382535172    4.07501986530612    2.87659301553992
H         1.79517034063593    4.31950804611619    1.82139496367569
H         0.89538539786381    4.41313899585137    3.34230121624195
H         2.66173158253325    4.56404734029404    3.34916829613003
C         1.81615404706390    2.18225367759533    4.53005284014830
H         1.94123558672494    1.10684793257177    4.64638864285141
H         2.52916029639965    2.70442808848830    5.15963950127944
H         0.80907743076165    2.43480815586499    4.85462908290736
B         2.27820000000000   -1.33089999999997    0.17409999999999
O         2.88647592868908   -2.56742163931505    0.34632739207385
C         4.22731828420437   -2.51135003838513   -0.16161375164293
C         5.13953401131965   -2.10358970966206    0.98121779043080
H         4.84730875156699   -1.11469629771524    1.31888954590802
H         5.02441953696790   -2.79894252910977    1.80753566729375
H         6.17048251943186   -2.10363748648589    0.63802647537506
C         4.68829344304180   -3.87246445847749   -0.66417660557172
H         4.73315058161137   -4.54908222793119    0.18519638110874
H         5.68534736219768   -3.77777591879533   -1.08380471099181
H         4.01282548797057   -4.28396364383552   -1.40229163836389
C         4.13510424999580   -1.35953176308819   -1.20212457551446
O         3.04930475789229   -0.57614646692723   -0.68105062128688
C         5.38300103993506   -0.48914968097286   -1.34307531949129
H         6.23392928361030   -1.09606419105245   -1.63732234968509
H         5.20514455263963    0.26143151815055   -2.10747565173377
H         5.60682023034709    0.02588588565074   -0.41533562270327
C         3.70608379248223   -1.88774756973928   -2.57395854963319
H         2.82055143183747   -2.50542474512112   -2.45202375763362
H         3.44825798307984   -1.04829815177714   -3.21230283349563
H         4.50461173452663   -2.45965040867926   -3.03416924545130
H        -3.39259248382441   -4.00593381607508   -2.54430594572631
H        -5.19887272964807    1.46344440878782    1.32800843321842
C         0.23589999999989   -1.68140000000002    2.96030000000006
C        -0.72671056078208   -2.32927760915834    3.70859478829937
C         1.53743049836870   -1.52209091097099    3.77403026166938
C        -0.62063005218113   -2.51345138142885    5.09940231905201
H        -1.60883066572161   -2.73246530762494    3.22455408035349
N         1.49981725177895   -1.50981567780174    5.08433711263100
C         3.06681111460863   -1.65519743020965    3.35059004523242
C         0.44564456554962   -1.94838716716992    5.75888501168057
H        -1.33422003743237   -3.11850442937847    5.64007811772102
C         4.25398495667723   -1.25049978866172    4.38568244868992
H         3.20896677390334   -1.20427724600935    2.38653266960548
H         3.15105681240275   -2.74022016623359    3.23659952660879
H         0.56110947815247   -1.93758528845945    6.83707282733930
C         5.59263018990308   -0.45715528766555    4.12613701138980
H         4.58302526562556   -2.19286586198891    4.82799568207443
H         3.76751838680577   -0.69000599349031    5.18060856868347
C         6.50454356552337   -0.51850222258314    3.06514629572676
C         5.98088218895156    0.47026172043108    5.11276649120050
C         7.41830756213174    0.50278124652688    2.80032683300560
H         6.54340076221453   -1.34936106256998    2.39791328178694
C         6.92741562918663    1.46239686322064    4.89085151339901
H         5.48115601050971    0.48003987133162    6.06951189623961
C         7.56948619800442    1.56804739872984    3.66636988188012
H         7.98753909756982    0.48065300097156    1.87781300672477
H         7.11493352958279    2.20927617845214    5.65035096385721