      -----------------------------------------------------------      
     |                   =====================                   |     
     |                           x T B                           |     
     |                   =====================                   |     
     |                         S. Grimme                         |     
     |          Mulliken Center for Theoretical Chemistry        |     
     |                    University of Bonn                     |     
      -----------------------------------------------------------      

   * xtb version 6.4.1 (1a32961) compiled by 'knkr256@seskscpg007.prim.scp' on 2021-10-19

   xtb is free software: you can redistribute it and/or modify it under
   the terms of the GNU Lesser General Public License as published by
   the Free Software Foundation, either version 3 of the License, or
   (at your option) any later version.
   
   xtb is distributed in the hope that it will be useful,
   but WITHOUT ANY WARRANTY; without even the implied warranty of
   MERCHANTABILITY or FITNESS FOR A PARTICULAR PURPOSE.  See the
   GNU Lesser General Public License for more details.
   
   Cite this work as:
   * C. Bannwarth, E. Caldeweyher, S. Ehlert, A. Hansen, P. Pracht,
     J. Seibert, S. Spicher, S. Grimme, WIREs Comput. Mol. Sci., 2020, 11,
     e01493. DOI: 10.1002/wcms.1493
   
   for GFN2-xTB:
   * C. Bannwarth, S. Ehlert and S. Grimme., J. Chem. Theory Comput., 2019,
     15, 1652-1671. DOI: 10.1021/acs.jctc.8b01176
   for GFN1-xTB:
   * S. Grimme, C. Bannwarth, P. Shushkov, J. Chem. Theory Comput., 2017,
     13, 1989-2009. DOI: 10.1021/acs.jctc.7b00118
   for GFN0-xTB:
   * P. Pracht, E. Caldeweyher, S. Ehlert, S. Grimme, ChemRxiv, 2019, preprint.
     DOI: 10.26434/chemrxiv.8326202.v1
   for GFN-FF:
   * S. Spicher and S. Grimme, Angew. Chem. Int. Ed., 2020, 59, 15665-15673.
     DOI: 10.1002/anie.202004239
   
   for ALPB and GBSA implicit solvation:
   * S. Ehlert, M. Stahn, S. Spicher, S. Grimme, J. Chem. Theory Comput.,
     2021, 17, 4250-4261. DOI: 10.1021/acs.jctc.1c00471
   
   for DFT-D4:
   * E. Caldeweyher, C. Bannwarth and S. Grimme, J. Chem. Phys., 2017,
     147, 034112. DOI: 10.1063/1.4993215
   * E. Caldeweyher, S. Ehlert, A. Hansen, H. Neugebauer, S. Spicher,
     C. Bannwarth and S. Grimme, J. Chem. Phys., 2019, 150, 154122.
     DOI: 10.1063/1.5090222
   * E. Caldeweyher, J.-M. Mewes, S. Ehlert and S. Grimme, Phys. Chem. Chem. Phys.
     2020, 22, 8499-8512. DOI: 10.1039/D0CP00502A
   
   for sTDA-xTB:
   * S. Grimme and C. Bannwarth, J. Chem. Phys., 2016, 145, 054103.
     DOI: 10.1063/1.4959605
   
   in the mass-spec context:
   * V. Asgeirsson, C. Bauer and S. Grimme, Chem. Sci., 2017, 8, 4879.
     DOI: 10.1039/c7sc00601b
   * J. Koopman and S. Grimme, ACS Omega 2019, 4, 12, 15120-15133.
     DOI: 10.1021/acsomega.9b02011
   
   for metadynamics refer to:
   * S. Grimme, J. Chem. Theory Comput., 2019, 155, 2847-2862
     DOI: 10.1021/acs.jctc.9b00143
   
   for SPH calculations refer to:
   * S. Spicher and S. Grimme, J. Chem. Theory Comput., 2021, 17, 1701-1714
     DOI: 10.1021/acs.jctc.0c01306
   
   with help from (in alphabetical order)
   P. Atkinson, C. Bannwarth, F. Bohle, G. Brandenburg, E. Caldeweyher
   M. Checinski, S. Dohm, S. Ehlert, S. Ehrlich, I. Gerasimov, J. Koopman
   C. Lavigne, S. Lehtola, F. März, M. Müller, F. Musil, H. Neugebauer
   J. Pisarek, C. Plett, P. Pracht, J. Seibert, P. Shushkov, S. Spicher
   M. Stahn, M. Steiner, T. Strunk, J. Stückrath, T. Rose, and J. Unsleber
   
 * started run on 2022/01/14 at 13:17:26.228     

           -------------------------------------------------
          |                Calculation Setup                |
           -------------------------------------------------

          program call               : xtb xtbopt.xyz --sp --alpb thf -P 6
          hostname                   : seskscpg007.prim.scp
          coordinate file            : xtbopt.xyz
          omp threads                :                     6
          number of atoms            :                    95
          number of electrons        :                   258
          charge                     :                     0
          spin                       :                   0.0
          first test random number   :      0.84008783446972

   ID    Z sym.   atoms
    1    7 N      1, 11, 88, 92, 95
    2    6 C      2-6, 10, 12-15, 23, 24, 28, 32, 34, 38, 44, 45, 49, 53, 55,
                  59, 65, 66, 70, 74, 76, 80, 86, 87, 89, 91, 94
    3    1 H      7-9, 16-18, 20, 25-27, 29-31, 35-37, 39-41, 46-48, 50-52,
                  56-58, 60-62, 67-69, 71-73, 77-79, 81-85, 90, 93
    4   77 Ir     19
    5    5 B      21, 42, 63
    6    8 O      22, 33, 43, 54, 64, 75

molecular fragmentation (1/2 indicates fragments):
111111111111111111111111111111111111111111111111111111111111111111111111
11111111111112222222222
# atoms in fragment 1/2:    85    10
 fragment masses (1/2) :      730.32      104.09
CMA distance (Bohr)    :   9.276
constraining FC (au)   :  0.0500

           -------------------------------------------------
          |                 G F N 2 - x T B                 |
           -------------------------------------------------

        Reference                      10.1021/acs.jctc.8b01176
      * Hamiltonian:
        H0-scaling (s, p, d)           1.850000    2.230000    2.230000
        zeta-weighting                 0.500000
      * Dispersion:
        s8                             2.700000
        a1                             0.520000
        a2                             5.000000
        s9                             5.000000
      * Repulsion:
        kExp                           1.500000    1.000000
        rExp                           1.000000
      * Coulomb:
        alpha                          2.000000
        third order                    shell-resolved
        anisotropic                    true
        a3                             3.000000
        a5                             4.000000
        cn-shift                       1.200000
        cn-exp                         4.000000
        max-rad                        5.000000

      * Solvation model:               ALPB
        Solvent                        thf
        Parameter file                 internal GFN2-xTB/ALPB
        Dielectric constant                7.6000E+00
        Reference state                gsolv [1 M gas/solution]
        Free energy shift                  5.3248E-03 Eh       3.3414E+00 kcal/mol
        Temperature                        2.9815E+02 K
        Density                            8.8300E-01 kg/L
        Solvent mass                       7.2106E+01 g/mol
        Interaction kernel             P16
        Born radius scaling (c1)           1.7311E+00
        Born radii integrator          GBOBC
        Born offset                        0.0000E+00 a0       0.0000E+00 AA
        H-bond correction              true
        Ion screening                  false
        Surface tension                    1.0000E-05 Eh       1.5569E+01 dyn/cm
        Grid points                               230 per atom
q/qsh data taken from xtbrestart
CAMM data taken from xtbrestart

          ...................................................
          :                      SETUP                      :
          :.................................................:
          :  # basis functions                 245          :
          :  # atomic orbitals                 244          :
          :  # shells                          144          :
          :  # electrons                       258          :
          :  max. iterations                   250          :
          :  Hamiltonian                  GFN2-xTB          :
          :  restarted?                       true          :
          :  GBSA solvation                   true          :
          :  PC potential                    false          :
          :  electronic temp.          300.0000000     K    :
          :  accuracy                    1.0000000          :
          :  -> integral cutoff          0.2500000E+02      :
          :  -> integral neglect         0.1000000E-07      :
          :  -> SCF convergence          0.1000000E-05 Eh   :
          :  -> wf. convergence          0.1000000E-03 e    :
          :  Broyden damping             0.4000000          :
          ...................................................

 iter      E             dE          RMSdq      gap      omega  full diag
   1   -143.3339202 -0.143334E+03  0.275E-05    0.93       0.0  T
   2   -143.3339202 -0.184741E-11  0.206E-05    0.93     498.8  T
   3   -143.3339202 -0.986233E-11  0.171E-05    0.93     599.1  T

   *** convergence criteria satisfied after 3 iterations ***

         #    Occupation            Energy/Eh            Energy/eV
      -------------------------------------------------------------
         1        2.0000           -0.6816764             -18.5494
       ...           ...                  ...                  ...
       123        2.0000           -0.3728333             -10.1453
       124        2.0000           -0.3556203              -9.6769
       125        2.0000           -0.3428815              -9.3303
       126        2.0000           -0.3347382              -9.1087
       127        2.0000           -0.3278140              -8.9203
       128        2.0000           -0.3229521              -8.7880
       129        2.0000           -0.3198018              -8.7023 (HOMO)
       130                         -0.2857240              -7.7749 (LUMO)
       131                         -0.2852835              -7.7630
       132                         -0.2624036              -7.1404
       133                         -0.2561057              -6.9690
       134                         -0.2546089              -6.9283
       ...                                ...                  ...
       244                          3.7508811             102.0667
      -------------------------------------------------------------
                  HL-Gap            0.0340778 Eh            0.9273 eV
             Fermi-level           -0.3029777 Eh           -8.2444 eV

 SCC (total)                   0 d,  0 h,  0 min,  0.083 sec
 SCC setup                      ...        0 min,  0.003 sec (  3.805%)
 Dispersion                     ...        0 min,  0.003 sec (  3.287%)
 classical contributions        ...        0 min,  0.000 sec (  0.163%)
 integral evaluation            ...        0 min,  0.011 sec ( 12.719%)
 iterations                     ...        0 min,  0.034 sec ( 41.007%)
 molecular gradient             ...        0 min,  0.032 sec ( 38.113%)
 printout                       ...        0 min,  0.001 sec (  0.812%)

         :::::::::::::::::::::::::::::::::::::::::::::::::::::
         ::                     SUMMARY                     ::
         :::::::::::::::::::::::::::::::::::::::::::::::::::::
         :: total energy            -141.497992796894 Eh    ::
         :: total w/o Gsasa/hb      -141.456725358884 Eh    ::
         :: gradient norm              0.039462671440 Eh/a0 ::
         :: HOMO-LUMO gap              0.927304725624 eV    ::
         ::.................................................::
         :: SCC energy              -143.333920188245 Eh    ::
         :: -> isotropic ES            0.256676163629 Eh    ::
         :: -> anisotropic ES          0.014242331151 Eh    ::
         :: -> anisotropic XC          0.070663813770 Eh    ::
         :: -> dispersion             -0.132353833977 Eh    ::
         :: -> Gsolv                  -0.053914123880 Eh    ::
         ::    -> Gelec               -0.012646685870 Eh    ::
         ::    -> Gsasa               -0.043952372341 Eh    ::
         ::    -> Ghb                 -0.002639881112 Eh    ::
         ::    -> Gshift               0.005324815444 Eh    ::
         :: repulsion energy           1.828085635452 Eh    ::
         :: add. restraining           0.000000000000 Eh    ::
         :: total charge              -0.000000000319 e     ::
         :::::::::::::::::::::::::::::::::::::::::::::::::::::

           -------------------------------------------------
          |                Property Printout                |
           -------------------------------------------------

    * Orbital Energies and Occupations

         #    Occupation            Energy/Eh            Energy/eV
      -------------------------------------------------------------
         1        2.0000           -0.6816764             -18.5494
       ...           ...                  ...                  ...
       117        2.0000           -0.4067718             -11.0688
       118        2.0000           -0.4036573             -10.9841
       119        2.0000           -0.3975226             -10.8171
       120        2.0000           -0.3912472             -10.6464
       121        2.0000           -0.3870310             -10.5316
       122        2.0000           -0.3856697             -10.4946
       123        2.0000           -0.3728333             -10.1453
       124        2.0000           -0.3556203              -9.6769
       125        2.0000           -0.3428815              -9.3303
       126        2.0000           -0.3347382              -9.1087
       127        2.0000           -0.3278140              -8.9203
       128        2.0000           -0.3229521              -8.7880
       129        2.0000           -0.3198018              -8.7023 (HOMO)
       130                         -0.2857240              -7.7749 (LUMO)
       131                         -0.2852835              -7.7630
       132                         -0.2624036              -7.1404
       133                         -0.2561057              -6.9690
       134                         -0.2546089              -6.9283
       135                         -0.2199300              -5.9846
       136                         -0.2139543              -5.8220
       137                         -0.2024782              -5.5097
       138                         -0.1808476              -4.9211
       139                         -0.1602018              -4.3593
       140                         -0.1348343              -3.6690
       ...                                ...                  ...
       244                          3.7508811             102.0667
      -------------------------------------------------------------
                  HL-Gap            0.0340778 Eh            0.9273 eV
             Fermi-level           -0.3029777 Eh           -8.2444 eV

     #   Z          covCN         q      C6AA      α(0)
     1   7 N        2.529    -0.123    23.709     7.231
     2   6 C        2.953     0.077    26.272     8.407
     3   6 C        2.918    -0.043    29.073     8.842
     4   6 C        2.924    -0.020    28.505     8.755
     5   6 C        2.915    -0.042    29.045     8.837
     6   6 C        2.892     0.049    26.904     8.504
     7   1 H        0.926     0.057     2.230     2.335
     8   1 H        0.926     0.062     2.175     2.306
     9   1 H        0.926     0.054     2.270     2.356
    10   6 C        2.952     0.073    26.358     8.421
    11   7 N        2.538    -0.133    23.924     7.264
    12   6 C        2.889     0.042    27.065     8.529
    13   6 C        2.915    -0.043    29.066     8.841
    14   6 C        2.922    -0.024    28.592     8.769
    15   6 C        2.918    -0.044    29.096     8.845
    16   1 H        0.926     0.053     2.278     2.360
    17   1 H        0.926     0.057     2.234     2.337
    18   1 H        0.926     0.076     2.025     2.225
    19  77 Ir       5.901    -0.142   386.553    36.358
    20   1 H        0.977     0.086     1.915     2.163
    21   5 B        2.636     0.406    15.959     6.744
    22   8 O        1.638    -0.400    20.854     6.164
    23   6 C        3.836     0.129    18.467     6.114
    24   6 C        3.755    -0.124    22.931     6.828
    25   1 H        0.925     0.055     2.254     2.348
    26   1 H        0.925     0.047     2.352     2.398
    27   1 H        0.925     0.054     2.268     2.355
    28   6 C        3.754    -0.112    22.706     6.795
    29   1 H        0.925     0.051     2.310     2.377
    30   1 H        0.925     0.045     2.383     2.414
    31   1 H        0.925     0.028     2.609     2.526
    32   6 C        3.843     0.130    18.442     6.109
    33   8 O        1.637    -0.401    20.872     6.167
    34   6 C        3.755    -0.124    22.942     6.830
    35   1 H        0.925     0.054     2.267     2.355
    36   1 H        0.925     0.049     2.334     2.389
    37   1 H        0.925     0.052     2.298     2.371
    38   6 C        3.755    -0.122    22.898     6.823
    39   1 H        0.925     0.047     2.352     2.398
    40   1 H        0.925     0.056     2.252     2.347
    41   1 H        0.925     0.048     2.340     2.392
    42   5 B        2.630     0.408    15.963     6.750
    43   8 O        1.637    -0.374    20.367     6.092
    44   6 C        3.841     0.128    18.474     6.114
    45   6 C        3.755    -0.127    22.997     6.838
    46   1 H        0.925     0.056     2.241     2.341
    47   1 H        0.925     0.058     2.221     2.331
    48   1 H        0.925     0.052     2.294     2.369
    49   6 C        3.755    -0.124    22.937     6.829
    50   1 H        0.925     0.052     2.296     2.369
    51   1 H        0.925     0.051     2.308     2.376
    52   1 H        0.925     0.053     2.277     2.360
    53   6 C        3.834     0.128    18.474     6.115
    54   8 O        1.637    -0.385    20.575     6.123
    55   6 C        3.755    -0.126    22.972     6.834
    56   1 H        0.925     0.057     2.234     2.338
    57   1 H        0.925     0.055     2.261     2.351
    58   1 H        0.925     0.052     2.298     2.371
    59   6 C        3.755    -0.118    22.818     6.811
    60   1 H        0.925     0.039     2.458     2.452
    61   1 H        0.925     0.056     2.248     2.345
    62   1 H        0.925     0.044     2.394     2.420
    63   5 B        2.632     0.406    15.972     6.750
    64   8 O        1.637    -0.377    20.414     6.099
    65   6 C        3.835     0.125    18.525     6.123
    66   6 C        3.755    -0.132    23.101     6.853
    67   1 H        0.925     0.060     2.197     2.318
    68   1 H        0.925     0.055     2.261     2.352
    69   1 H        0.925     0.053     2.279     2.361
    70   6 C        3.755    -0.130    23.047     6.845
    71   1 H        0.925     0.061     2.193     2.316
    72   1 H        0.925     0.053     2.281     2.362
    73   1 H        0.925     0.053     2.284     2.363
    74   6 C        3.831     0.127    18.503     6.120
    75   8 O        1.637    -0.373    20.335     6.087
    76   6 C        3.755    -0.126    22.979     6.835
    77   1 H        0.925     0.053     2.282     2.362
    78   1 H        0.925     0.056     2.246     2.344
    79   1 H        0.925     0.058     2.228     2.334
    80   6 C        3.755    -0.124    22.929     6.828
    81   1 H        0.925     0.042     2.422     2.434
    82   1 H        0.925     0.052     2.300     2.372
    83   1 H        0.925     0.057     2.235     2.338
    84   1 H        0.926     0.060     2.200     2.320
    85   1 H        0.926     0.057     2.238     2.340
    86   6 C        2.822     0.070    26.431     8.424
    87   6 C        2.909    -0.044    29.090     8.844
    88   7 N        1.849    -0.249    27.333     7.748
    89   6 C        2.929     0.069    26.445     8.434
    90   1 H        0.926     0.043     2.406     2.425
    91   6 C        2.963     0.190    23.954     8.028
    92   7 N        1.846    -0.274    27.955     7.836
    93   1 H        0.925     0.049     2.336     2.390
    94   6 C        1.917     0.121    28.131     8.566
    95   7 N        0.911    -0.218    25.751     7.339

 Mol. C6AA /au·bohr⁶  :     100041.201455
 Mol. C8AA /au·bohr⁸  :    2676678.498975
 Mol. α(0) /au        :        489.345984


Wiberg/Mayer (AO) data.
largest (>0.10) Wiberg bond orders for each atom

 ---------------------------------------------------------------------------
     #   Z sym  total        # sym  WBO       # sym  WBO       # sym  WBO
 ---------------------------------------------------------------------------
     1   7 N    3.403 --     6 C    1.394     2 C    1.319    19 Ir   0.429
     2   6 C    3.978 --     3 C    1.351     1 N    1.319    10 C    1.086
     3   6 C    3.987 --     4 C    1.480     2 C    1.351     9 H    0.962
                             6 C    0.106
     4   6 C    3.979 --     3 C    1.480     5 C    1.389    84 H    0.968
     5   6 C    3.977 --     6 C    1.455     4 C    1.389     8 H    0.968
     6   6 C    3.977 --     5 C    1.455     1 N    1.394     7 H    0.957
                             3 C    0.106
     7   1 H    0.996 --     6 C    0.957
     8   1 H    0.995 --     5 C    0.968
     9   1 H    0.997 --     3 C    0.962
    10   6 C    3.976 --    15 C    1.358    11 N    1.305     2 C    1.086
    11   7 N    3.401 --    12 C    1.383    10 C    1.305    19 Ir   0.426
    12   6 C    3.973 --    13 C    1.457    11 N    1.383    18 H    0.947
                            15 C    0.105
    13   6 C    3.981 --    12 C    1.457    14 C    1.389    17 H    0.968
    14   6 C    3.981 --    15 C    1.473    13 C    1.389    85 H    0.968
    15   6 C    3.988 --    14 C    1.473    10 C    1.358    16 H    0.961
                            12 C    0.105
    16   1 H    0.997 --    15 C    0.961
    17   1 H    0.996 --    13 C    0.968
    18   1 H    0.994 --    12 C    0.947
    19  77 Ir   5.162 --    63 B    0.844    42 B    0.836    21 B    0.729
                            86 C    0.620    20 H    0.519     1 N    0.429
                            11 N    0.426
    20   1 H    0.990 --    19 Ir   0.519    86 C    0.350
    21   5 B    3.286 --    33 O    1.119    22 O    1.105    19 Ir   0.729
    22   8 O    2.205 --    21 B    1.105    23 C    0.938
    23   6 C    3.940 --    24 C    0.997    28 C    0.991    32 C    0.941
                            22 O    0.938
    24   6 C    3.993 --    23 C    0.997    26 H    0.983    27 H    0.983
                            25 H    0.982
    25   1 H    0.997 --    24 C    0.982
    26   1 H    0.996 --    24 C    0.983
    27   1 H    0.997 --    24 C    0.983
    28   6 C    3.996 --    23 C    0.991    31 H    0.985    30 H    0.984
                            29 H    0.984
    29   1 H    0.997 --    28 C    0.984
    30   1 H    0.998 --    28 C    0.984
    31   1 H    0.999 --    28 C    0.985
    32   6 C    3.937 --    38 C    0.997    34 C    0.991    23 C    0.941
                            33 O    0.934
    33   8 O    2.206 --    21 B    1.119    32 C    0.934
    34   6 C    3.993 --    32 C    0.991    36 H    0.983    37 H    0.982
                            35 H    0.981
    35   1 H    0.997 --    34 C    0.981
    36   1 H    0.997 --    34 C    0.983
    37   1 H    0.997 --    34 C    0.982
    38   6 C    3.994 --    32 C    0.997    41 H    0.983    39 H    0.983
                            40 H    0.982
    39   1 H    0.998 --    38 C    0.983
    40   1 H    0.997 --    38 C    0.982
    41   1 H    0.996 --    38 C    0.983
    42   5 B    3.342 --    43 O    1.139    54 O    1.107    19 Ir   0.836
    43   8 O    2.239 --    42 B    1.139    44 C    0.932
    44   6 C    3.934 --    45 C    0.997    49 C    0.991    53 C    0.940
                            43 O    0.932
    45   6 C    3.992 --    44 C    0.997    48 H    0.983    46 H    0.982
                            47 H    0.982
    46   1 H    0.997 --    45 C    0.982
    47   1 H    0.996 --    45 C    0.982
    48   1 H    0.996 --    45 C    0.983
    49   6 C    3.993 --    44 C    0.991    50 H    0.983    51 H    0.982
                            52 H    0.980
    50   1 H    0.996 --    49 C    0.983
    51   1 H    0.997 --    49 C    0.982
    52   1 H    0.997 --    49 C    0.980
    53   6 C    3.936 --    55 C    0.997    59 C    0.993    44 C    0.940
                            54 O    0.930
    54   8 O    2.226 --    42 B    1.107    53 C    0.930
    55   6 C    3.992 --    53 C    0.997    57 H    0.983    58 H    0.983
                            56 H    0.982
    56   1 H    0.997 --    55 C    0.982
    57   1 H    0.997 --    55 C    0.983
    58   1 H    0.996 --    55 C    0.983
    59   6 C    3.994 --    53 C    0.993    62 H    0.983    61 H    0.982
                            60 H    0.982
    60   1 H    0.998 --    59 C    0.982
    61   1 H    0.996 --    59 C    0.982
    62   1 H    0.998 --    59 C    0.983
    63   5 B    3.370 --    75 O    1.131    64 O    1.121    19 Ir   0.844
    64   8 O    2.233 --    63 B    1.121    65 C    0.933
    65   6 C    3.934 --    70 C    0.997    66 C    0.992    74 C    0.938
                            64 O    0.933
    66   6 C    3.992 --    65 C    0.992    69 H    0.983    68 H    0.982
                            67 H    0.979
    67   1 H    0.996 --    66 C    0.979
    68   1 H    0.997 --    66 C    0.982
    69   1 H    0.996 --    66 C    0.983
    70   6 C    3.992 --    65 C    0.997    72 H    0.983    73 H    0.982
                            71 H    0.982
    71   1 H    0.996 --    70 C    0.982
    72   1 H    0.996 --    70 C    0.983
    73   1 H    0.997 --    70 C    0.982
    74   6 C    3.932 --    76 C    0.996    80 C    0.992    65 C    0.938
                            75 O    0.932
    75   8 O    2.245 --    63 B    1.131    74 C    0.932
    76   6 C    3.992 --    74 C    0.996    77 H    0.983    78 H    0.982
                            79 H    0.981
    77   1 H    0.996 --    76 C    0.983
    78   1 H    0.997 --    76 C    0.982
    79   1 H    0.997 --    76 C    0.981
    80   6 C    3.994 --    74 C    0.992    81 H    0.984    83 H    0.983
                            82 H    0.983
    81   1 H    0.998 --    80 C    0.984
    82   1 H    0.997 --    80 C    0.983
    83   1 H    0.996 --    80 C    0.983
    84   1 H    0.995 --     4 C    0.968
    85   1 H    0.996 --    14 C    0.968
    86   6 C    3.904 --    88 N    1.377    87 C    1.316    19 Ir   0.620
                            20 H    0.350
    87   6 C    3.989 --    89 C    1.468    86 C    1.316    90 H    0.964
    88   7 N    3.091 --    91 C    1.381    86 C    1.377
    89   6 C    3.974 --    87 C    1.468    92 N    1.395    93 H    0.959
    90   1 H    0.998 --    87 C    0.964
    91   6 C    3.971 --    88 N    1.381    92 N    1.360    94 C    1.048
    92   7 N    3.043 --    89 C    1.395    91 C    1.360
    93   1 H    0.995 --    89 C    0.959
    94   6 C    3.937 --    95 N    2.829    91 C    1.048
    95   7 N    3.000 --    94 C    2.829
 ---------------------------------------------------------------------------

Topologies differ in total number of bonds
Writing topology from bond orders to xtbtopo.mol

molecular dipole:
                 x           y           z       tot (Debye)
 q only:       -0.873       0.677      -3.403
   full:       -2.585       0.666      -4.170      12.584
molecular quadrupole (traceless):
                xx          xy          yy          xz          yz          zz
 q only:       29.189       7.436      15.691     -13.802      22.386     -44.879
  q+dip:       32.977      10.614      23.159     -22.169      26.738     -56.135
   full:       29.985      10.819      25.939     -25.231      23.806     -55.924


           -------------------------------------------------
          | TOTAL ENERGY             -141.497992796894 Eh   |
          | GRADIENT NORM               0.039462671440 Eh/α |
          | HOMO-LUMO GAP               0.927304725624 eV   |
           -------------------------------------------------

------------------------------------------------------------------------
 * finished run on 2022/01/14 at 13:17:26.339     
------------------------------------------------------------------------
 total:
 * wall-time:     0 d,  0 h,  0 min,  0.112 sec
 *  cpu-time:     0 d,  0 h,  0 min,  0.650 sec
 * ratio c/w:     5.817 speedup
 SCF:
 * wall-time:     0 d,  0 h,  0 min,  0.084 sec
 *  cpu-time:     0 d,  0 h,  0 min,  0.504 sec
 * ratio c/w:     5.969 speedup

