      -----------------------------------------------------------      
     |                   =====================                   |     
     |                           x T B                           |     
     |                   =====================                   |     
     |                         S. Grimme                         |     
     |          Mulliken Center for Theoretical Chemistry        |     
     |                    University of Bonn                     |     
      -----------------------------------------------------------      

   * xtb version 6.4.0 (f63f532) compiled by 'knkr256@seskscpg008.prim.scp' on 2021-04-09

   xtb is free software: you can redistribute it and/or modify it under
   the terms of the GNU Lesser General Public License as published by
   the Free Software Foundation, either version 3 of the License, or
   (at your option) any later version.
   
   xtb is distributed in the hope that it will be useful,
   but WITHOUT ANY WARRANTY; without even the implied warranty of
   MERCHANTABILITY or FITNESS FOR A PARTICULAR PURPOSE.  See the
   GNU Lesser General Public License for more details.
   
   Cite this work as:
   * C. Bannwarth, E. Caldeweyher, S. Ehlert, A. Hansen, P. Pracht,
     J. Seibert, S. Spicher, S. Grimme, WIREs Comput. Mol. Sci., 2020, 11,
     e01493. DOI: 10.1002/wcms.1493
   
   for GFN2-xTB:
   * C. Bannwarth, S. Ehlert and S. Grimme., J. Chem. Theory Comput., 2019,
     15, 1652-1671. DOI: 10.1021/acs.jctc.8b01176
   for GFN1-xTB:
   * S. Grimme, C. Bannwarth, P. Shushkov, J. Chem. Theory Comput., 2017,
     13, 1989-2009. DOI: 10.1021/acs.jctc.7b00118
   for GFN0-xTB:
   * P. Pracht, E. Caldeweyher, S. Ehlert, S. Grimme, ChemRxiv, 2019, preprint.
     DOI: 10.26434/chemrxiv.8326202.v1
   for GFN-FF:
   * S. Spicher and S. Grimme, Angew. Chem. Int. Ed., 2020, 59, 15665-15673.
     DOI: 10.1002/anie.202004239
   
   for DFT-D4:
   * E. Caldeweyher, C. Bannwarth and S. Grimme, J. Chem. Phys., 2017,
     147, 034112. DOI: 10.1063/1.4993215
   * E. Caldeweyher, S. Ehlert, A. Hansen, H. Neugebauer, S. Spicher,
     C. Bannwarth and S. Grimme, J. Chem. Phys., 2019, 150, 154122.
     DOI: 10.1063/1.5090222
   * E. Caldeweyher, J.-M. Mewes, S. Ehlert and S. Grimme, Phys. Chem. Chem. Phys.
     2020, 22, 8499-8512. DOI: 10.1039/D0CP00502A
   
   for sTDA-xTB:
   * S. Grimme and C. Bannwarth, J. Chem. Phys., 2016, 145, 054103.
     DOI: 10.1063/1.4959605
   
   in the mass-spec context:
   * V. Asgeirsson, C. Bauer and S. Grimme, Chem. Sci., 2017, 8, 4879.
     DOI: 10.1039/c7sc00601b
   * J. Koopman and S. Grimme, ACS Omega 2019, 4, 12, 15120-15133.
     DOI: 10.1021/acsomega.9b02011
   
   for metadynamics refer to:
   * S. Grimme, J. Chem. Theory Comput., 2019, 155, 2847-2862
     DOI: 10.1021/acs.jctc.9b00143
   
   for SPH calculations refer to:
   * S. Spicher and S. Grimme, J. Chem. Theory Comput., 2021, 17, 1701-1714
     DOI: 10.1021/acs.jctc.0c01306
   
   with help from (in alphabetical order)
   P. Atkinson, C. Bannwarth, F. Bohle, G. Brandenburg, E. Caldeweyher
   M. Checinski, S. Dohm, S. Ehlert, S. Ehrlich, I. Gerasimov, J. Koopman
   C. Lavinge, S. Lehtola, F. März, M. Müller, F. Musil, H. Neugebauer
   J. Pisarek, P. Pracht, J. Seibert, P. Shushkov, S. Spicher, M. Stahn
   T. Strunk, J. Stückrath, T. Rose, and J. Unsleber
   
 * started run on 2021/10/08 at 07:09:52.649     

           -------------------------------------------------
          |                Calculation Setup                |
           -------------------------------------------------

          program call               : xtb xtbopt.xyz --sp --alpb thf -P 6
          hostname                   : seskscpg010.prim.scp
          coordinate file            : xtbopt.xyz
          omp threads                :                     6
          number of atoms            :                    97
          number of electrons        :                   252
          charge                     :                     0
          spin                       :                   0.0
          first test random number   :      0.94628167871104

   ID    Z sym.   atoms
    1    7 N      1, 11, 89
    2    6 C      2-6, 10, 12-15, 23, 24, 28, 32, 34, 38, 44, 45, 49, 53, 55,
                  59, 65, 66, 70, 74, 76, 80, 86-88, 91, 93
    3    1 H      7-9, 16-18, 20, 25-27, 29-31, 35-37, 39-41, 46-48, 50-52,
                  56-58, 60-62, 67-69, 71-73, 77-79, 81-85, 90, 92, 94-97
    4   77 Ir     19
    5    5 B      21, 42, 63
    6    8 O      22, 33, 43, 54, 64, 75

molecular fragmentation (1/2 indicates fragments):
111111111111111111111111111111111111111111111111111111111111111111111111
1111111111111222222222222
# atoms in fragment 1/2:    85    12
 fragment masses (1/2) :      730.32       80.11
CMA distance (Bohr)    :   9.019
constraining FC (au)   :  0.0500

           -------------------------------------------------
          |                 G F N 2 - x T B                 |
           -------------------------------------------------

        Reference                      10.1021/acs.jctc.8b01176
      * Hamiltonian:
        H0-scaling (s, p, d)           1.850000    2.230000    2.230000
        zeta-weighting                 0.500000
      * Dispersion:
        s8                             2.700000
        a1                             0.520000
        a2                             5.000000
        s9                             5.000000
      * Repulsion:
        kExp                           1.500000    1.000000
        rExp                           1.000000
      * Coulomb:
        alpha                          2.000000
        third order                    shell-resolved
        anisotropic                    true
        a3                             3.000000
        a5                             4.000000
        cn-shift                       1.200000
        cn-exp                         4.000000
        max-rad                        5.000000

      * Solvation model:               ALPB
        Solvent                        thf
        Parameter file                 internal GFN2-xTB/ALPB
        Dielectric constant                7.6000E+00
        Reference state                gsolv [1 M gas/solution]
        Free energy shift                  5.3248E-03 Eh       3.3414E+00 kcal/mol
        Temperature                        2.9815E+02 K
        Density                            8.8300E-01 kg/L
        Solvent mass                       7.2106E+01 g/mol
        Interaction kernel             P16
        Born radius scaling (c1)           1.7311E+00
        Born radii integrator          GBOBC
        Born offset                        0.0000E+00 a0       0.0000E+00 AA
        H-bond correction              true
        Ion screening                  false
        Surface tension                    1.0000E-05 Eh       1.5569E+01 dyn/cm
        Grid points                               230 per atom
q/qsh data taken from xtbrestart
CAMM data taken from xtbrestart

          ...................................................
          :                      SETUP                      :
          :.................................................:
          :  # basis functions                 241          :
          :  # atomic orbitals                 240          :
          :  # shells                          144          :
          :  # electrons                       252          :
          :  max. iterations                   250          :
          :  Hamiltonian                  GFN2-xTB          :
          :  restarted?                       true          :
          :  GBSA solvation                   true          :
          :  PC potential                    false          :
          :  electronic temp.          300.0000000     K    :
          :  accuracy                    1.0000000          :
          :  -> integral cutoff          0.2500000E+02      :
          :  -> integral neglect         0.1000000E-07      :
          :  -> SCF convergence          0.1000000E-05 Eh   :
          :  -> wf. convergence          0.1000000E-03 e    :
          :  Broyden damping             0.4000000          :
          ...................................................

 iter      E             dE          RMSdq      gap      omega  full diag
   1   -139.4909181 -0.139491E+03  0.480E-05    0.85       0.0  T
   2   -139.4909181  0.937348E-10  0.541E-05    0.85     187.7  T
   3   -139.4909181 -0.837872E-10  0.369E-05    0.85     275.3  T

   *** convergence criteria satisfied after 3 iterations ***

         #    Occupation            Energy/Eh            Energy/eV
      -------------------------------------------------------------
         1        2.0000           -0.6708778             -18.2555
       ...           ...                  ...                  ...
       120        2.0000           -0.3508693              -9.5476
       121        2.0000           -0.3401031              -9.2547
       122        2.0000           -0.3227750              -8.7832
       123        2.0000           -0.3136183              -8.5340
       124        2.0000           -0.3120102              -8.4902
       125        2.0000           -0.3037653              -8.2659
       126        2.0000           -0.3022273              -8.2240 (HOMO)
       127        0.0000           -0.2708682              -7.3707 (LUMO)
       128                         -0.2430657              -6.6142
       129                         -0.2405602              -6.5460
       130                         -0.1996990              -5.4341
       131                         -0.1858174              -5.0563
       ...                                ...                  ...
       240                          3.7140597             101.0647
      -------------------------------------------------------------
                  HL-Gap            0.0313591 Eh            0.8533 eV
             Fermi-level           -0.2864618 Eh           -7.7950 eV

 SCC (total)                   0 d,  0 h,  0 min,  0.096 sec
 SCC setup                      ...        0 min,  0.003 sec (  3.348%)
 Dispersion                     ...        0 min,  0.002 sec (  1.564%)
 classical contributions        ...        0 min,  0.000 sec (  0.150%)
 integral evaluation            ...        0 min,  0.024 sec ( 24.519%)
 iterations                     ...        0 min,  0.030 sec ( 31.430%)
 molecular gradient             ...        0 min,  0.037 sec ( 38.374%)
 printout                       ...        0 min,  0.001 sec (  0.548%)

         :::::::::::::::::::::::::::::::::::::::::::::::::::::
         ::                     SUMMARY                     ::
         :::::::::::::::::::::::::::::::::::::::::::::::::::::
         :: total energy            -137.732220368877 Eh    ::
         :: total w/o Gsasa/hb      -137.693456530601 Eh    ::
         :: gradient norm              0.037130417800 Eh/a0 ::
         :: HOMO-LUMO gap              0.853324263321 eV    ::
         ::.................................................::
         :: SCC energy              -139.490918087097 Eh    ::
         :: -> isotropic ES            0.239804594674 Eh    ::
         :: -> anisotropic ES          0.016602026579 Eh    ::
         :: -> anisotropic XC          0.045179763594 Eh    ::
         :: -> dispersion             -0.131404593226 Eh    ::
         :: -> Gsolv                  -0.049425096539 Eh    ::
         ::    -> Gelec               -0.010661258262 Eh    ::
         ::    -> Gsasa               -0.041518298348 Eh    ::
         ::    -> Ghb                 -0.002570355373 Eh    ::
         ::    -> Gshift               0.005324815444 Eh    ::
         :: repulsion energy           1.750995115841 Eh    ::
         :: add. restraining           0.000000000000 Eh    ::
         :: total charge               0.000000000073 e     ::
         :::::::::::::::::::::::::::::::::::::::::::::::::::::

           -------------------------------------------------
          |                Property Printout                |
           -------------------------------------------------

    * Orbital Energies and Occupations

         #    Occupation            Energy/Eh            Energy/eV
      -------------------------------------------------------------
         1        2.0000           -0.6708778             -18.2555
       ...           ...                  ...                  ...
       114        2.0000           -0.3904396             -10.6244
       115        2.0000           -0.3832023             -10.4275
       116        2.0000           -0.3830777             -10.4241
       117        2.0000           -0.3789050             -10.3105
       118        2.0000           -0.3780122             -10.2862
       119        2.0000           -0.3663158              -9.9680
       120        2.0000           -0.3508693              -9.5476
       121        2.0000           -0.3401031              -9.2547
       122        2.0000           -0.3227750              -8.7832
       123        2.0000           -0.3136183              -8.5340
       124        2.0000           -0.3120102              -8.4902
       125        2.0000           -0.3037653              -8.2659
       126        2.0000           -0.3022273              -8.2240 (HOMO)
       127        0.0000           -0.2708682              -7.3707 (LUMO)
       128                         -0.2430657              -6.6142
       129                         -0.2405602              -6.5460
       130                         -0.1996990              -5.4341
       131                         -0.1858174              -5.0563
       132                         -0.1646493              -4.4803
       133                         -0.1432745              -3.8987
       134                         -0.1220633              -3.3215
       135                         -0.1209680              -3.2917
       136                         -0.1165088              -3.1704
       137                         -0.1063102              -2.8928
       ...                                ...                  ...
       240                          3.7140597             101.0647
      -------------------------------------------------------------
                  HL-Gap            0.0313591 Eh            0.8533 eV
             Fermi-level           -0.2864618 Eh           -7.7950 eV

     #   Z          covCN         q      C6AA      α(0)
     1   7 N        2.561    -0.123    23.705     7.231
     2   6 C        2.955     0.074    26.355     8.420
     3   6 C        2.918    -0.044    29.098     8.846
     4   6 C        2.923    -0.025    28.619     8.773
     5   6 C        2.915    -0.046    29.138     8.852
     6   6 C        2.892     0.048    26.926     8.508
     7   1 H        0.926     0.049     2.336     2.390
     8   1 H        0.926     0.051     2.312     2.378
     9   1 H        0.926     0.042     2.417     2.431
    10   6 C        2.954     0.069    26.455     8.436
    11   7 N        2.569    -0.125    23.739     7.236
    12   6 C        2.889     0.041    27.082     8.532
    13   6 C        2.915    -0.047    29.172     8.857
    14   6 C        2.922    -0.027    28.682     8.783
    15   6 C        2.918    -0.046    29.149     8.853
    16   1 H        0.926     0.041     2.442     2.444
    17   1 H        0.926     0.047     2.354     2.399
    18   1 H        0.926     0.076     2.020     2.223
    19  77 Ir       5.967    -0.172   390.164    36.527
    20   1 H        0.977     0.097     1.808     2.101
    21   5 B        2.629     0.403    16.033     6.766
    22   8 O        1.638    -0.412    21.094     6.200
    23   6 C        3.835     0.131    18.441     6.110
    24   6 C        3.755    -0.119    22.843     6.815
    25   1 H        0.925     0.051     2.302     2.372
    26   1 H        0.925     0.043     2.409     2.427
    27   1 H        0.925     0.049     2.327     2.385
    28   6 C        3.754    -0.107    22.610     6.780
    29   1 H        0.925     0.045     2.377     2.411
    30   1 H        0.925     0.040     2.447     2.446
    31   1 H        0.925     0.027     2.625     2.534
    32   6 C        3.840     0.131    18.430     6.107
    33   8 O        1.637    -0.407    20.997     6.185
    34   6 C        3.755    -0.119    22.828     6.813
    35   1 H        0.925     0.050     2.323     2.384
    36   1 H        0.925     0.044     2.399     2.422
    37   1 H        0.925     0.048     2.349     2.397
    38   6 C        3.754    -0.119    22.831     6.813
    39   1 H        0.925     0.046     2.366     2.406
    40   1 H        0.925     0.052     2.296     2.370
    41   1 H        0.925     0.043     2.403     2.424
    42   5 B        2.624     0.404    16.036     6.771
    43   8 O        1.637    -0.386    20.583     6.124
    44   6 C        3.837     0.129    18.470     6.114
    45   6 C        3.754    -0.125    22.953     6.831
    46   1 H        0.925     0.055     2.260     2.351
    47   1 H        0.925     0.054     2.267     2.354
    48   1 H        0.925     0.048     2.344     2.394
    49   6 C        3.755    -0.120    22.856     6.817
    50   1 H        0.925     0.047     2.359     2.402
    51   1 H        0.925     0.044     2.402     2.424
    52   1 H        0.925     0.051     2.308     2.376
    53   6 C        3.833     0.127    18.491     6.118
    54   8 O        1.638    -0.382    20.508     6.113
    55   6 C        3.755    -0.124    22.926     6.827
    56   1 H        0.925     0.053     2.288     2.366
    57   1 H        0.925     0.054     2.272     2.357
    58   1 H        0.925     0.046     2.364     2.404
    59   6 C        3.755    -0.124    22.933     6.828
    60   1 H        0.925     0.047     2.363     2.404
    61   1 H        0.925     0.050     2.315     2.379
    62   1 H        0.925     0.051     2.310     2.377
    63   5 B        2.625     0.403    16.053     6.774
    64   8 O        1.637    -0.380    20.469     6.107
    65   6 C        3.833     0.125    18.523     6.123
    66   6 C        3.755    -0.129    23.041     6.844
    67   1 H        0.925     0.058     2.224     2.332
    68   1 H        0.925     0.054     2.274     2.358
    69   1 H        0.925     0.048     2.340     2.392
    70   6 C        3.755    -0.128    23.017     6.841
    71   1 H        0.925     0.060     2.195     2.317
    72   1 H        0.925     0.049     2.333     2.389
    73   1 H        0.925     0.051     2.304     2.374
    74   6 C        3.829     0.128    18.491     6.118
    75   8 O        1.637    -0.386    20.580     6.124
    76   6 C        3.755    -0.123    22.906     6.824
    77   1 H        0.925     0.049     2.329     2.387
    78   1 H        0.925     0.052     2.296     2.370
    79   1 H        0.925     0.054     2.273     2.358
    80   6 C        3.755    -0.120    22.854     6.817
    81   1 H        0.925     0.039     2.462     2.454
    82   1 H        0.925     0.047     2.359     2.402
    83   1 H        0.925     0.053     2.283     2.363
    84   1 H        0.926     0.048     2.349     2.397
    85   1 H        0.926     0.044     2.392     2.418
    86   6 C        2.950    -0.051    29.273     8.874
    87   6 C        3.065    -0.029    28.654     8.778
    88   6 C        3.062    -0.075    29.800     8.952
    89   7 N        2.846    -0.005    21.354     6.863
    90   1 H        0.926     0.015     2.815     2.624
    91   6 C        3.046    -0.033    28.785     8.799
    92   1 H        0.926     0.020     2.730     2.584
    93   6 C        3.690    -0.067    21.970     6.708
    94   1 H        0.926     0.030     2.584     2.514
    95   1 H        0.924     0.063     2.170     2.304
    96   1 H        0.925     0.071     2.079     2.255
    97   1 H        0.925     0.067     2.122     2.278

 Mol. C6AA /au·bohr⁶  :      97889.122367
 Mol. C8AA /au·bohr⁸  :    2599580.570730
 Mol. α(0) /au        :        484.332107


Wiberg/Mayer (AO) data.
largest (>0.10) Wiberg bond orders for each atom

 ---------------------------------------------------------------------------
     #   Z sym  total        # sym  WBO       # sym  WBO       # sym  WBO
 ---------------------------------------------------------------------------
     1   7 N    3.405 --     6 C    1.383     2 C    1.300    19 Ir   0.461
     2   6 C    3.979 --     3 C    1.343     1 N    1.300    10 C    1.101
     3   6 C    3.988 --     4 C    1.490     2 C    1.343     9 H    0.962
                             6 C    0.106
     4   6 C    3.985 --     3 C    1.490     5 C    1.372    84 H    0.969
     5   6 C    3.979 --     6 C    1.467     4 C    1.372     8 H    0.969
     6   6 C    3.979 --     5 C    1.467     1 N    1.383     7 H    0.957
                             3 C    0.106
     7   1 H    0.997 --     6 C    0.957
     8   1 H    0.997 --     5 C    0.969
     9   1 H    0.998 --     3 C    0.962
    10   6 C    3.979 --    15 C    1.348    11 N    1.293     2 C    1.101
    11   7 N    3.411 --    12 C    1.379    10 C    1.293    19 Ir   0.456
    12   6 C    3.973 --    13 C    1.465    11 N    1.379    18 H    0.948
                            15 C    0.105
    13   6 C    3.982 --    12 C    1.465    14 C    1.375    17 H    0.969
    14   6 C    3.982 --    15 C    1.484    13 C    1.375    85 H    0.970
    15   6 C    3.989 --    14 C    1.484    10 C    1.348    16 H    0.962
                            12 C    0.105
    16   1 H    0.998 --    15 C    0.962
    17   1 H    0.997 --    13 C    0.969
    18   1 H    0.994 --    12 C    0.948
    19  77 Ir   5.247 --    63 B    0.877    42 B    0.871    21 B    0.717
                            86 C    0.592    20 H    0.540     1 N    0.461
                            11 N    0.456
    20   1 H    0.988 --    19 Ir   0.540    86 C    0.345
    21   5 B    3.262 --    33 O    1.105    22 O    1.085    19 Ir   0.717
    22   8 O    2.185 --    21 B    1.085    23 C    0.945
    23   6 C    3.945 --    24 C    0.996    28 C    0.990    22 O    0.945
                            32 C    0.941
    24   6 C    3.994 --    23 C    0.996    26 H    0.984    27 H    0.983
                            25 H    0.983
    25   1 H    0.997 --    24 C    0.983
    26   1 H    0.997 --    24 C    0.984
    27   1 H    0.997 --    24 C    0.983
    28   6 C    3.997 --    23 C    0.990    31 H    0.985    29 H    0.984
                            30 H    0.984
    29   1 H    0.997 --    28 C    0.984
    30   1 H    0.998 --    28 C    0.984
    31   1 H    0.999 --    28 C    0.985
    32   6 C    3.942 --    38 C    0.997    34 C    0.991    33 O    0.942
                            23 C    0.941
    33   8 O    2.195 --    21 B    1.105    32 C    0.942
    34   6 C    3.994 --    32 C    0.991    36 H    0.984    37 H    0.982
                            35 H    0.982
    35   1 H    0.998 --    34 C    0.982
    36   1 H    0.997 --    34 C    0.984
    37   1 H    0.997 --    34 C    0.982
    38   6 C    3.995 --    32 C    0.997    41 H    0.984    39 H    0.983
                            40 H    0.983
    39   1 H    0.998 --    38 C    0.983
    40   1 H    0.997 --    38 C    0.983
    41   1 H    0.997 --    38 C    0.984
    42   5 B    3.329 --    43 O    1.108    54 O    1.104    19 Ir   0.871
    43   8 O    2.220 --    42 B    1.108    44 C    0.939
    44   6 C    3.938 --    45 C    0.997    49 C    0.990    53 C    0.939
                            43 O    0.939
    45   6 C    3.993 --    44 C    0.997    48 H    0.983    46 H    0.982
                            47 H    0.982
    46   1 H    0.997 --    45 C    0.982
    47   1 H    0.997 --    45 C    0.982
    48   1 H    0.997 --    45 C    0.983
    49   6 C    3.994 --    44 C    0.990    50 H    0.984    51 H    0.983
                            52 H    0.980
    50   1 H    0.997 --    49 C    0.984
    51   1 H    0.998 --    49 C    0.983
    52   1 H    0.997 --    49 C    0.980
    53   6 C    3.939 --    55 C    0.996    59 C    0.991    44 C    0.939
                            54 O    0.938
    54   8 O    2.225 --    42 B    1.104    53 C    0.938
    55   6 C    3.993 --    53 C    0.996    58 H    0.983    57 H    0.983
                            56 H    0.983
    56   1 H    0.997 --    55 C    0.983
    57   1 H    0.997 --    55 C    0.983
    58   1 H    0.997 --    55 C    0.983
    59   6 C    3.994 --    53 C    0.991    61 H    0.983    62 H    0.983
                            60 H    0.982
    60   1 H    0.998 --    59 C    0.982
    61   1 H    0.997 --    59 C    0.983
    62   1 H    0.997 --    59 C    0.983
    63   5 B    3.351 --    75 O    1.110    64 O    1.106    19 Ir   0.877
    64   8 O    2.224 --    63 B    1.106    65 C    0.940
    65   6 C    3.939 --    70 C    0.996    66 C    0.991    64 O    0.940
                            74 C    0.938
    66   6 C    3.993 --    65 C    0.991    69 H    0.983    68 H    0.983
                            67 H    0.979
    67   1 H    0.997 --    66 C    0.979
    68   1 H    0.997 --    66 C    0.983
    69   1 H    0.997 --    66 C    0.983
    70   6 C    3.992 --    65 C    0.996    72 H    0.984    73 H    0.982
                            71 H    0.982
    71   1 H    0.996 --    70 C    0.982
    72   1 H    0.997 --    70 C    0.984
    73   1 H    0.997 --    70 C    0.982
    74   6 C    3.937 --    76 C    0.996    80 C    0.991    75 O    0.938
                            65 C    0.938
    75   8 O    2.226 --    63 B    1.110    74 C    0.938
    76   6 C    3.993 --    74 C    0.996    77 H    0.983    78 H    0.982
                            79 H    0.982
    77   1 H    0.996 --    76 C    0.983
    78   1 H    0.997 --    76 C    0.982
    79   1 H    0.997 --    76 C    0.982
    80   6 C    3.995 --    74 C    0.991    81 H    0.984    83 H    0.984
                            82 H    0.983
    81   1 H    0.998 --    80 C    0.984
    82   1 H    0.998 --    80 C    0.983
    83   1 H    0.996 --    80 C    0.984
    84   1 H    0.997 --     4 C    0.969
    85   1 H    0.997 --    14 C    0.970
    86   6 C    3.952 --    87 C    1.495    88 C    1.290    19 Ir   0.592
                            20 H    0.345
    87   6 C    3.937 --    86 C    1.495    89 N    1.210    90 H    0.967
                            91 C    0.130
    88   6 C    3.978 --    91 C    1.546    86 C    1.290    92 H    0.969
    89   7 N    3.623 --    91 C    1.220    87 C    1.210    93 C    1.005
    90   1 H    1.000 --    87 C    0.967
    91   6 C    3.938 --    88 C    1.546    89 N    1.220    94 H    0.969
                            87 C    0.130
    92   1 H    0.999 --    88 C    0.969
    93   6 C    3.968 --    89 N    1.005    97 H    0.979    96 H    0.978
                            95 H    0.972
    94   1 H    0.998 --    91 C    0.969
    95   1 H    0.995 --    93 C    0.972
    96   1 H    0.994 --    93 C    0.978
    97   1 H    0.995 --    93 C    0.979
 ---------------------------------------------------------------------------

Topologies differ in total number of bonds
Writing topology from bond orders to xtbtopo.mol

molecular dipole:
                 x           y           z       tot (Debye)
 q only:       -0.468      -0.108       0.483
   full:       -1.674       0.177      -0.157       4.298
molecular quadrupole (traceless):
                xx          xy          yy          xz          yz          zz
 q only:        3.518       4.928      -8.364      -8.688       1.956       4.846
  q+dip:        6.306       6.760     -10.299      -8.925       6.738       3.993
   full:        4.277       7.984      -9.016     -10.987       3.820       4.739


           -------------------------------------------------
          | TOTAL ENERGY             -137.732220368877 Eh   |
          | GRADIENT NORM               0.037130417800 Eh/α |
          | HOMO-LUMO GAP               0.853324263321 eV   |
           -------------------------------------------------

------------------------------------------------------------------------
 * finished run on 2021/10/08 at 07:09:52.782     
------------------------------------------------------------------------
 total:
 * wall-time:     0 d,  0 h,  0 min,  0.133 sec
 *  cpu-time:     0 d,  0 h,  0 min,  0.775 sec
 * ratio c/w:     5.829 speedup
 SCF:
 * wall-time:     0 d,  0 h,  0 min,  0.097 sec
 *  cpu-time:     0 d,  0 h,  0 min,  0.582 sec
 * ratio c/w:     5.972 speedup

