13
 energy: -22.348828807052 gnorm: 0.000337326970 xtb: 6.4.1 (1a32961)
O         0.92837063258775   -0.67399595200371    0.00872724670966
C        -0.35258630292111   -1.12843656280721    0.00750258874438
C        -0.61550251455549   -2.50191407885790    0.01057581481408
N        -0.86128292598784   -3.62478511503761    0.01343071858889
C        -1.22773675748669   -0.06533855892479    0.00298316735731
C        -0.42741541803762    1.09272925359689    0.00169434968393
C         0.87701062587538    0.66979710718653    0.00528097999164
C         2.15315307447716    1.42612630866338    0.00581472285482
H        -2.29681750919270   -0.12500060537893    0.00078752405759
H        -0.77012030632529    2.10655520555262   -0.00177448477309
H         1.94750220067316    2.49154224135868    0.00660259753891
H         2.74203385682610    1.17110150273969   -0.87416869769945
H         2.74208134406720    1.16959925391237    0.88529347213133
