13
 energy: -22.347101735498 gnorm: 0.046216682034 xtb: 6.4.1 (1a32961)
O         0.91670000000000   -0.66891000000000    0.00881000000000
C        -0.37004000000000   -1.11335000000000    0.00724000000000
C        -0.58783000000000   -2.51613000000000    0.01094000000000
N        -0.79854000000000   -3.65804000000000    0.01413000000000
C        -1.24942000000000   -0.05506000000000    0.00271000000000
C        -0.45176000000000    1.11667000000000    0.00126000000000
C         0.86153000000000    0.69475000000000    0.00511000000000
C         2.15585000000000    1.40570000000000    0.00592000000000
H        -2.32906000000000   -0.11795000000000    0.00049000000000
H        -0.79037000000000    2.14398000000000   -0.00222000000000
H         2.00488000000000    2.48976000000000    0.00789000000000
H         2.73801000000000    1.14481000000000   -0.88303000000000
H         2.73874000000000    1.14175000000000    0.89350000000000
13
 energy: -22.348534756035 gnorm: 0.019053358628 xtb: 6.4.1 (1a32961)
O         0.91548068732604   -0.66708412019555    0.00885161418351
C        -0.36740271617786   -1.11746305417604    0.00729858335172
C        -0.59465513221269   -2.50408482202058    0.01056370924631
N        -0.80769524984489   -3.63045453851336    0.01424929775885
C        -1.24271099299149   -0.05898559762548    0.00271627059378
C        -0.44296876402331    1.10392529787889    0.00145023271732
C         0.86348322527770    0.68725327691748    0.00521981558965
C         2.15314694311633    1.41319027731886    0.00589397117234
H        -2.31429842687133   -0.11803988630142    0.00041922774533
H        -0.78247476548756    2.12129893746913   -0.00203002872809
H         1.98585388431536    2.48885926655619    0.00770311526618
H         2.73614455002850    1.14629502178029   -0.87603687350205
H         2.73678675754520    1.14326994091159    0.88645106460516
13
 energy: -22.348746043621 gnorm: 0.007001208211 xtb: 6.4.1 (1a32961)
O         0.91799568203611   -0.66690537705436    0.00896635984841
C        -0.36321087910451   -1.12052466438431    0.00750903246464
C        -0.60121547998101   -2.49936683138351    0.01195434260227
N        -0.82105996157556   -3.62668011204073    0.01288852117225
C        -1.23743454263137   -0.06022976390051    0.00268175822075
C        -0.43665633768090    1.09870577727778    0.00136127413717
C         0.86706780081296    0.68100067733395    0.00513986814977
C         2.15290865273688    1.41848976089323    0.00584521040526
H        -2.30600751548359   -0.11738316306812    0.00056856195565
H        -0.77821612141015    2.11220178122760   -0.00210262826085
H         1.97069520248785    2.48857486255219    0.00749240769674
H         2.73666621392563    1.15148035367673   -0.87380905406974
H         2.73715728586765    1.14861669887006    0.88425434567769
13
 energy: -22.348795539443 gnorm: 0.003122713075 xtb: 6.4.1 (1a32961)
O         0.92199748894566   -0.66898020056658    0.00846638101830
C        -0.35881934995884   -1.12403829224934    0.00651572159816
C        -0.60765647096068   -2.49921363994662    0.00441419599342
N        -0.83503088829298   -3.62605855600840    0.01940620995930
C        -1.23326587075549   -0.06142560702341    0.00316845107832
C        -0.43224467332965    1.09627506355049    0.00216861838903
C         0.87122526349936    0.67504929642419    0.00563188180354
C         2.15344352656581    1.42190600615283    0.00602692759488
H        -2.30165140688083   -0.11806302159420    0.00015356841453
H        -0.77584904571919    2.10913730787619   -0.00141972334386
H         1.95900927505433    2.48880150341560    0.00762903175061
H         2.73834674244017    1.15871274882871   -0.87376956813159
H         2.73918540939232    1.15587739114053    0.88435830387535
13
 energy: -22.348718636778 gnorm: 0.009728694397 xtb: 6.4.1 (1a32961)
O         0.92872110746467   -0.67313961265391    0.01030999291852
C        -0.35187352878137   -1.12971874525891    0.01036659335404
C        -0.61802681204140   -2.50036186167329    0.02824618741547
N        -0.85855349458302   -3.62575935165100   -0.00250507620093
C        -1.22679078281498   -0.06367284273404    0.00218080927854
C        -0.42568669624479    1.09289189916871   -0.00022311004938
C         0.87805818050855    0.66589452951486    0.00417869734647
C         2.15428645358036    1.42689716200388    0.00535203851229
H        -2.29562419215300   -0.12027688438636    0.00186157927883
H        -0.77204256676248    2.10556732031124   -0.00379268132173
H         1.94173389205394    2.48967311978686    0.00617105697208
H         2.74252690723623    1.17075947233080   -0.87435437975820
H         2.74196153253730    1.16922579524117    0.88495829225400
13
 energy: -22.348823235697 gnorm: 0.001349613991 xtb: 6.4.1 (1a32961)
O         0.92546627002483   -0.67184662934874    0.00886169920557
C        -0.35557210992902   -1.12687345118920    0.00730694550031
C        -0.61309819118463   -2.50088972268808    0.01084121428310
N        -0.84775458172294   -3.62613302658164    0.01366454404962
C        -1.23015116804629   -0.06291985541989    0.00279275200446
C        -0.42928705866240    1.09479353350578    0.00154235723111
C         0.87476302742984    0.67090142813486    0.00520733791200
C         2.15370691584300    1.42404907010161    0.00585090547945
H        -2.29922717735722   -0.12029334918451    0.00069089747911
H        -0.77351793851222    2.10811657399420   -0.00188991817817
H         1.95158497870436    2.48969873702637    0.00718579080498
H         2.74069338859896    1.16587822475404   -0.87433822702069
H         2.74108364481373    1.16349846689521    0.88503370124913
13
 energy: -22.348826437691 gnorm: 0.000666316776 xtb: 6.4.1 (1a32961)
O         0.92639188803844   -0.67286286426567    0.00877326700622
C        -0.35478185224395   -1.12739175985031    0.00739990451194
C        -0.61437982820571   -2.50154425776801    0.01044664922627
N        -0.85230496533592   -3.62620260850727    0.01385721056787
C        -1.22931729450652   -0.06370546439051    0.00291738110496
C        -0.42860795800169    1.09419315701691    0.00160150612304
C         0.87564054162284    0.67042986018842    0.00525628021381
C         2.15346289786826    1.42464044486817    0.00585150139130
H        -2.29854012892953   -0.12192846600345    0.00067035374410
H        -0.77217927124354    2.10777076386218   -0.00188766478549
H         1.95035052035001    2.49047217578769    0.00707702138083
H         2.74130190328777    1.16814880431271   -0.87438686128667
H         2.74165354729954    1.16596021474915    0.88517345080184
13
 energy: -22.348828281705 gnorm: 0.000451697958 xtb: 6.4.1 (1a32961)
O         0.92786755388436   -0.67399287588206    0.00892796556926
C        -0.35325156740056   -1.12825742471207    0.00735995637077
C        -0.61576678908164   -2.50186491623349    0.01074837375026
N        -0.85898709750617   -3.62521208581959    0.01337731730378
C        -1.22804498393634   -0.06488825039292    0.00293210229079
C        -0.42750405279376    1.09304159394082    0.00160092724863
C         0.87684203510928    0.66963332082315    0.00521574130999
C         2.15315407485954    1.42573126298200    0.00580801868217
H        -2.29719050969435   -0.12414752804124    0.00084341515760
H        -0.77032444001513    2.10681569434212   -0.00181945497657
H         1.94780855237178    2.49127530766828    0.00676047826731
H         2.74198650186010    1.17079580589031   -0.87425474043875
H         2.74210072234289    1.16905009543469    0.88524989946476
13
 energy: -22.348828806947 gnorm: 0.000337217559 xtb: 6.4.1 (1a32961)
O         0.92837063258775   -0.67399595200371    0.00872724670966
C        -0.35258630292111   -1.12843656280721    0.00750258874438
C        -0.61550251455549   -2.50191407885790    0.01057581481408
N        -0.86128292598784   -3.62478511503761    0.01343071858889
C        -1.22773675748669   -0.06533855892479    0.00298316735731
C        -0.42741541803762    1.09272925359689    0.00169434968393
C         0.87701062587538    0.66979710718653    0.00528097999164
C         2.15315307447716    1.42612630866338    0.00581472285482
H        -2.29681750919270   -0.12500060537893    0.00078752405759
H        -0.77012030632529    2.10655520555262   -0.00177448477309
H         1.94750220067316    2.49154224135868    0.00660259753891
H         2.74203385682610    1.17110150273969   -0.87416869769945
H         2.74208134406720    1.16959925391237    0.88529347213133
