98
 energy: -139.873878422023 gnorm: 0.000182821461 xtb: 6.4.0 (f63f532)
N        -0.90098267284050   -2.02415678657883   -0.38985218116686
C        -2.16306286299640   -1.57670286754147   -0.53470939265729
C        -3.03404229692271   -2.17032725637738   -1.45796471823602
C        -2.59715627508485   -3.21701620579581   -2.23944710830691
C        -1.28661186905099   -3.66317655579740   -2.08380776297872
C        -0.48969028897128   -3.03587143791030   -1.14964573238994
H         0.53115074718363   -3.35219364817621   -0.98758809968696
H        -0.90182450999977   -4.47945472797569   -2.67316127225454
H        -4.04569941440239   -1.81541658944559   -1.56531345381975
C        -2.55082192767885   -0.45569021247722    0.31190576332805
N        -1.60968602844218    0.01476221267125    1.15922071366518
C        -1.92270221962676    1.03105813559459    1.96025097207250
C        -3.16049625477334    1.64042769739648    1.97071970829852
C        -4.13673668364137    1.17790700090225    1.09159070777228
C        -3.82388398033485    0.12592611777600    0.25852913745074
H        -4.56576917733147   -0.24268598219823   -0.43017140105366
H        -3.36085350086564    2.45421219926127    2.64862269270318
H        -1.12900318050697    1.36428799877735    2.61135918218490
Ir        0.42150000000019   -0.81649999999968    0.91330000000001
H         0.87260000000012   -2.23029999999991    1.54050000000006
B         0.39616686757931    0.63552479757045   -0.58404567315179
O        -0.28156339984694    0.38141773928589   -1.76449044279570
C        -0.38170984196495    1.58154361501204   -2.53854507234727
C        -0.18513342581241    1.25999869152833   -4.01777008949762
H         0.72294007811249    0.68586406340556   -4.16860410147665
H        -0.13806686446383    2.17883656237503   -4.59646663161035
H        -1.02535582191547    0.66601594670649   -4.36952985173441
C        -1.79782655155192    2.13568145372022   -2.32400192919121
H        -1.96650060307997    3.02633878038705   -2.92199352932124
H        -2.51754884998399    1.37212610414098   -2.61298981681557
H        -1.95412433139127    2.36406515665912   -1.27147029533484
C         0.72385962316072    2.48721883013973   -1.90447703375962
O         0.86531280955806    1.92868404325069   -0.59107401375889
C         2.08239740633309    2.32751565470319   -2.59779390022005
H         2.35982961936603    1.27611132881428   -2.59810295367695
H         2.06154017851217    2.71953314943574   -3.61063666639382
H         2.83123719625094    2.86707369115091   -2.02266046706682
C         0.36857159030462    3.96944064877159   -1.80846499926461
H        -0.48703218361976    4.12808023746126   -1.15945989988006
H         1.21426913005863    4.51194263372223   -1.39283623792549
H         0.15149630040144    4.36441024620105   -2.79773162076021
B         1.55620047752277    0.63705748161625    1.89232635276271
O         2.92322813405209    0.76775968807132    1.92311240836238
C         3.28569865834884    2.02863783724334    2.50519028826895
C         4.51613257403659    1.85418748369064    3.39361960477909
H         4.36247642480838    1.06407306306898    4.12106453647060
H         5.36781786581811    1.58417174177013    2.77451275057226
H         4.73922302546968    2.78498633864993    3.90817340645720
C         3.62088360791693    2.96413210130902    1.33697627540991
H         3.88855800378651    3.95764276905626    1.68396972858811
H         4.45900868539800    2.54384880150345    0.78561215166237
H         2.76760623861631    3.00854704523283    0.66486776431237
C         1.98014612496121    2.44742091302977    3.26388254139927
O         0.97464250015880    1.64567148722361    2.62836192874635
C         1.60552069592229    3.92279845072042    3.12962560685743
H         1.40560434621579    4.17446186642263    2.09348719128839
H         0.70465711181676    4.11492063653375    3.70734690135084
H         2.40651669007031    4.54921597714369    3.51274758877263
C         1.99394914677469    2.06481618140884    4.74942182562117
H         2.19262039331009    1.00267671118478    4.86376285368782
H         2.73400407907044    2.64225056638543    5.29468107508893
H         1.01126943793839    2.26534823412260    5.17017122597327
B         2.27819999999980   -1.33089999999935    0.17409999999846
O         3.10844227530926   -2.29884073387993    0.69794805993547
C         4.39656590141477   -2.24419015235055    0.07138529476541
C         5.32816241388112   -1.52855772363163    1.05545309103555
H         4.89680124808183   -0.56476310611865    1.31042962997333
H         5.38583234717404   -2.11991291597841    1.96585297584586
H         6.32648522369340   -1.40889767293910    0.64618967905076
C         4.90684541666481   -3.66540102833944   -0.16701376677632
H         5.04109928776540   -4.15379421629048    0.79455199440260
H         5.86131213236047   -3.63776231784385   -0.68504999065036
H         4.19782219548661   -4.24956443180229   -0.74411342144965
C         4.11692757004306   -1.41066558409378   -1.22971685264266
O         2.85896472722488   -0.78037659623525   -0.94427195951619
C         5.15488543489243   -0.33152497053262   -1.53409306502896
H         6.13853560918022   -0.77587517247487   -1.65769409618764
H         4.87971105805847    0.17641126865213   -2.45502573772140
H         5.17850841587768    0.40341631404044   -0.73712429667267
C         3.91719422363776   -2.27964892009746   -2.47887584799906
H         3.14561197208412   -3.02357315045261   -2.30109102021373
H         3.58600129842123   -1.64258878594856   -3.29542575805817
H         4.84274808148537   -2.76929870054622   -2.76590500636896
H        -3.25753164233509   -3.68006760825757   -2.95678261588000
H        -5.11614415763339    1.63089790291840    1.06179247287168
C         0.23590000000047   -1.68140000000160    2.96029999999923
C        -1.03666405845370   -2.06283536606184    3.38258156047149
C         1.19387417857774   -1.53244145937285    3.96253189398085
C        -1.31006380567735   -2.16978482815840    4.73657396194554
H        -1.82018998750699   -2.28171224533311    2.66867215834916
N         0.94214266874648   -1.63887896611068    5.25674890464963
H         2.22352789187611   -1.32181418945517    3.70302473678130
C        -0.29193360664761   -1.93333289255796    5.65456876400624
H        -2.29731788207361   -2.44600848432790    5.08020293540435
C        -0.52632256299056   -2.02258316816225    7.13233504471597
H         0.40884537010282   -1.85272357174340    7.65704722547976
H        -0.91535006584481   -3.00458546007207    7.39615021143022
H        -1.25350576014839   -1.27447574600181    7.44428970585241
