      -----------------------------------------------------------      
     |                   =====================                   |     
     |                           x T B                           |     
     |                   =====================                   |     
     |                         S. Grimme                         |     
     |          Mulliken Center for Theoretical Chemistry        |     
     |                    University of Bonn                     |     
      -----------------------------------------------------------      

   * xtb version 6.4.0 (f63f532) compiled by 'knkr256@seskscpg008.prim.scp' on 2021-04-09

   xtb is free software: you can redistribute it and/or modify it under
   the terms of the GNU Lesser General Public License as published by
   the Free Software Foundation, either version 3 of the License, or
   (at your option) any later version.
   
   xtb is distributed in the hope that it will be useful,
   but WITHOUT ANY WARRANTY; without even the implied warranty of
   MERCHANTABILITY or FITNESS FOR A PARTICULAR PURPOSE.  See the
   GNU Lesser General Public License for more details.
   
   Cite this work as:
   * C. Bannwarth, E. Caldeweyher, S. Ehlert, A. Hansen, P. Pracht,
     J. Seibert, S. Spicher, S. Grimme, WIREs Comput. Mol. Sci., 2020, 11,
     e01493. DOI: 10.1002/wcms.1493
   
   for GFN2-xTB:
   * C. Bannwarth, S. Ehlert and S. Grimme., J. Chem. Theory Comput., 2019,
     15, 1652-1671. DOI: 10.1021/acs.jctc.8b01176
   for GFN1-xTB:
   * S. Grimme, C. Bannwarth, P. Shushkov, J. Chem. Theory Comput., 2017,
     13, 1989-2009. DOI: 10.1021/acs.jctc.7b00118
   for GFN0-xTB:
   * P. Pracht, E. Caldeweyher, S. Ehlert, S. Grimme, ChemRxiv, 2019, preprint.
     DOI: 10.26434/chemrxiv.8326202.v1
   for GFN-FF:
   * S. Spicher and S. Grimme, Angew. Chem. Int. Ed., 2020, 59, 15665-15673.
     DOI: 10.1002/anie.202004239
   
   for DFT-D4:
   * E. Caldeweyher, C. Bannwarth and S. Grimme, J. Chem. Phys., 2017,
     147, 034112. DOI: 10.1063/1.4993215
   * E. Caldeweyher, S. Ehlert, A. Hansen, H. Neugebauer, S. Spicher,
     C. Bannwarth and S. Grimme, J. Chem. Phys., 2019, 150, 154122.
     DOI: 10.1063/1.5090222
   * E. Caldeweyher, J.-M. Mewes, S. Ehlert and S. Grimme, Phys. Chem. Chem. Phys.
     2020, 22, 8499-8512. DOI: 10.1039/D0CP00502A
   
   for sTDA-xTB:
   * S. Grimme and C. Bannwarth, J. Chem. Phys., 2016, 145, 054103.
     DOI: 10.1063/1.4959605
   
   in the mass-spec context:
   * V. Asgeirsson, C. Bauer and S. Grimme, Chem. Sci., 2017, 8, 4879.
     DOI: 10.1039/c7sc00601b
   * J. Koopman and S. Grimme, ACS Omega 2019, 4, 12, 15120-15133.
     DOI: 10.1021/acsomega.9b02011
   
   for metadynamics refer to:
   * S. Grimme, J. Chem. Theory Comput., 2019, 155, 2847-2862
     DOI: 10.1021/acs.jctc.9b00143
   
   for SPH calculations refer to:
   * S. Spicher and S. Grimme, J. Chem. Theory Comput., 2021, 17, 1701-1714
     DOI: 10.1021/acs.jctc.0c01306
   
   with help from (in alphabetical order)
   P. Atkinson, C. Bannwarth, F. Bohle, G. Brandenburg, E. Caldeweyher
   M. Checinski, S. Dohm, S. Ehlert, S. Ehrlich, I. Gerasimov, J. Koopman
   C. Lavinge, S. Lehtola, F. März, M. Müller, F. Musil, H. Neugebauer
   J. Pisarek, P. Pracht, J. Seibert, P. Shushkov, S. Spicher, M. Stahn
   T. Strunk, J. Stückrath, T. Rose, and J. Unsleber
   
 * started run on 2021/10/08 at 07:31:23.209     

           -------------------------------------------------
          |                Calculation Setup                |
           -------------------------------------------------

          program call               : xtb xtbopt.xyz --sp --alpb thf -P 6
          hostname                   : seskscpg010.prim.scp
          coordinate file            : xtbopt.xyz
          omp threads                :                     6
          number of atoms            :                   105
          number of electrons        :                   274
          charge                     :                     0
          spin                       :                   0.0
          first test random number   :      0.42563421101258

   ID    Z sym.   atoms
    1    7 N      1, 11
    2    6 C      2-6, 10, 12-15, 23, 24, 28, 32, 34, 38, 44, 45, 49, 53, 55,
                  59, 65, 66, 70, 74, 76, 80, 86-89, 91-93, 96, 97
    3    1 H      7-9, 16-18, 20, 25-27, 29-31, 35-37, 39-41, 46-48, 50-52,
                  56-58, 60-62, 67-69, 71-73, 77-79, 81-85, 90, 94, 98-105
    4   77 Ir     19
    5    5 B      21, 42, 63
    6    8 O      22, 33, 43, 54, 64, 75
    7   35 Br     95

molecular fragmentation (1/2 indicates fragments):
111111111111111111111111111111111111111111111111111111111111111111111111
111111111111122222222222222222222
# atoms in fragment 1/2:    85    20
 fragment masses (1/2) :      730.32      198.08
CMA distance (Bohr)    :   9.912
constraining FC (au)   :  0.0500

           -------------------------------------------------
          |                 G F N 2 - x T B                 |
           -------------------------------------------------

        Reference                      10.1021/acs.jctc.8b01176
      * Hamiltonian:
        H0-scaling (s, p, d)           1.850000    2.230000    2.230000
        zeta-weighting                 0.500000
      * Dispersion:
        s8                             2.700000
        a1                             0.520000
        a2                             5.000000
        s9                             5.000000
      * Repulsion:
        kExp                           1.500000    1.000000
        rExp                           1.000000
      * Coulomb:
        alpha                          2.000000
        third order                    shell-resolved
        anisotropic                    true
        a3                             3.000000
        a5                             4.000000
        cn-shift                       1.200000
        cn-exp                         4.000000
        max-rad                        5.000000

      * Solvation model:               ALPB
        Solvent                        thf
        Parameter file                 internal GFN2-xTB/ALPB
        Dielectric constant                7.6000E+00
        Reference state                gsolv [1 M gas/solution]
        Free energy shift                  5.3248E-03 Eh       3.3414E+00 kcal/mol
        Temperature                        2.9815E+02 K
        Density                            8.8300E-01 kg/L
        Solvent mass                       7.2106E+01 g/mol
        Interaction kernel             P16
        Born radius scaling (c1)           1.7311E+00
        Born radii integrator          GBOBC
        Born offset                        0.0000E+00 a0       0.0000E+00 AA
        H-bond correction              true
        Ion screening                  false
        Surface tension                    1.0000E-05 Eh       1.5569E+01 dyn/cm
        Grid points                               230 per atom
q/qsh data taken from xtbrestart
CAMM data taken from xtbrestart

          ...................................................
          :                      SETUP                      :
          :.................................................:
          :  # basis functions                 267          :
          :  # atomic orbitals                 265          :
          :  # shells                          157          :
          :  # electrons                       274          :
          :  max. iterations                   250          :
          :  Hamiltonian                  GFN2-xTB          :
          :  restarted?                       true          :
          :  GBSA solvation                   true          :
          :  PC potential                    false          :
          :  electronic temp.          300.0000000     K    :
          :  accuracy                    1.0000000          :
          :  -> integral cutoff          0.2500000E+02      :
          :  -> integral neglect         0.1000000E-07      :
          :  -> SCF convergence          0.1000000E-05 Eh   :
          :  -> wf. convergence          0.1000000E-03 e    :
          :  Broyden damping             0.4000000          :
          ...................................................

 iter      E             dE          RMSdq      gap      omega  full diag
   1   -151.4243017 -0.151424E+03  0.180E-05    0.84       0.0  T
   2   -151.4243017  0.501927E-10  0.279E-05    0.84     349.3  T
   3   -151.4243017 -0.589182E-10  0.115E-05    0.84     846.2  T

   *** convergence criteria satisfied after 3 iterations ***

         #    Occupation            Energy/Eh            Energy/eV
      -------------------------------------------------------------
         1        2.0000           -0.8217163             -22.3600
       ...           ...                  ...                  ...
       131        2.0000           -0.3784672             -10.2986
       132        2.0000           -0.3536101              -9.6222
       133        2.0000           -0.3344617              -9.1012
       134        2.0000           -0.3262698              -8.8783
       135        2.0000           -0.3167294              -8.6186
       136        2.0000           -0.3111240              -8.4661
       137        2.0000           -0.3091894              -8.4135 (HOMO)
       138        0.0000           -0.2784317              -7.5765 (LUMO)
       139                         -0.2512489              -6.8368
       140                         -0.2488851              -6.7725
       141                         -0.2243562              -6.1050
       142                         -0.2221418              -6.0448
       ...                                ...                  ...
       265                          3.5984285              97.9182
      -------------------------------------------------------------
                  HL-Gap            0.0307577 Eh            0.8370 eV
             Fermi-level           -0.2937522 Eh           -7.9934 eV

 SCC (total)                   0 d,  0 h,  0 min,  0.116 sec
 SCC setup                      ...        0 min,  0.002 sec (  2.013%)
 Dispersion                     ...        0 min,  0.002 sec (  2.081%)
 classical contributions        ...        0 min,  0.000 sec (  0.133%)
 integral evaluation            ...        0 min,  0.031 sec ( 26.332%)
 iterations                     ...        0 min,  0.034 sec ( 29.409%)
 molecular gradient             ...        0 min,  0.046 sec ( 39.411%)
 printout                       ...        0 min,  0.001 sec (  0.572%)

         :::::::::::::::::::::::::::::::::::::::::::::::::::::
         ::                     SUMMARY                     ::
         :::::::::::::::::::::::::::::::::::::::::::::::::::::
         :: total energy            -149.503892828216 Eh    ::
         :: total w/o Gsasa/hb      -149.464026916042 Eh    ::
         :: gradient norm              0.037523263761 Eh/a0 ::
         :: HOMO-LUMO gap              0.836959315353 eV    ::
         ::.................................................::
         :: SCC energy              -151.424301652325 Eh    ::
         :: -> isotropic ES            0.237165628998 Eh    ::
         :: -> anisotropic ES          0.011486524793 Eh    ::
         :: -> anisotropic XC          0.045942571997 Eh    ::
         :: -> dispersion             -0.153252110874 Eh    ::
         :: -> Gsolv                  -0.048765818673 Eh    ::
         ::    -> Gelec               -0.008899906499 Eh    ::
         ::    -> Gsasa               -0.042752183819 Eh    ::
         ::    -> Ghb                 -0.002438543799 Eh    ::
         ::    -> Gshift               0.005324815444 Eh    ::
         :: repulsion energy           1.910225495179 Eh    ::
         :: add. restraining           0.000000000000 Eh    ::
         :: total charge               0.000000000031 e     ::
         :::::::::::::::::::::::::::::::::::::::::::::::::::::

           -------------------------------------------------
          |                Property Printout                |
           -------------------------------------------------

    * Orbital Energies and Occupations

         #    Occupation            Energy/Eh            Energy/eV
      -------------------------------------------------------------
         1        2.0000           -0.8217163             -22.3600
       ...           ...                  ...                  ...
       125        2.0000           -0.3929894             -10.6938
       126        2.0000           -0.3912689             -10.6470
       127        2.0000           -0.3893754             -10.5954
       128        2.0000           -0.3872251             -10.5369
       129        2.0000           -0.3856766             -10.4948
       130        2.0000           -0.3812216             -10.3736
       131        2.0000           -0.3784672             -10.2986
       132        2.0000           -0.3536101              -9.6222
       133        2.0000           -0.3344617              -9.1012
       134        2.0000           -0.3262698              -8.8783
       135        2.0000           -0.3167294              -8.6186
       136        2.0000           -0.3111240              -8.4661
       137        2.0000           -0.3091894              -8.4135 (HOMO)
       138        0.0000           -0.2784317              -7.5765 (LUMO)
       139                         -0.2512489              -6.8368
       140                         -0.2488851              -6.7725
       141                         -0.2243562              -6.1050
       142                         -0.2221418              -6.0448
       143                         -0.2094742              -5.7001
       144                         -0.1989665              -5.4142
       145                         -0.1817728              -4.9463
       146                         -0.1586934              -4.3183
       147                         -0.1335806              -3.6349
       148                         -0.1294711              -3.5231
       ...                                ...                  ...
       265                          3.5984285              97.9182
      -------------------------------------------------------------
                  HL-Gap            0.0307577 Eh            0.8370 eV
             Fermi-level           -0.2937522 Eh           -7.9934 eV

     #   Z          covCN         q      C6AA      α(0)
     1   7 N        2.494    -0.135    23.981     7.272
     2   6 C        2.955     0.074    26.348     8.419
     3   6 C        2.918    -0.046    29.153     8.854
     4   6 C        2.923    -0.021    28.536     8.760
     5   6 C        2.915    -0.044    29.102     8.846
     6   6 C        2.893     0.044    27.009     8.521
     7   1 H        0.926     0.075     2.030     2.228
     8   1 H        0.926     0.057     2.238     2.339
     9   1 H        0.926     0.044     2.393     2.419
    10   6 C        2.955     0.072    26.387     8.425
    11   7 N        2.448    -0.150    24.328     7.324
    12   6 C        2.893     0.047    26.940     8.510
    13   6 C        2.915    -0.044    29.100     8.846
    14   6 C        2.923    -0.025    28.624     8.774
    15   6 C        2.918    -0.048    29.186     8.859
    16   1 H        0.926     0.043     2.408     2.427
    17   1 H        0.926     0.047     2.352     2.398
    18   1 H        0.926     0.073     2.054     2.241
    19  77 Ir       5.805    -0.142   386.580    36.359
    20   1 H        0.977     0.116     1.644     2.003
    21   5 B        2.629     0.402    16.036     6.766
    22   8 O        1.637    -0.406    20.966     6.181
    23   6 C        3.833     0.130    18.454     6.112
    24   6 C        3.755    -0.124    22.939     6.829
    25   1 H        0.925     0.056     2.248     2.345
    26   1 H        0.925     0.045     2.377     2.411
    27   1 H        0.925     0.053     2.279     2.361
    28   6 C        3.755    -0.110    22.660     6.787
    29   1 H        0.925     0.047     2.364     2.404
    30   1 H        0.925     0.044     2.402     2.424
    31   1 H        0.925     0.025     2.653     2.547
    32   6 C        3.837     0.131    18.437     6.109
    33   8 O        1.637    -0.407    20.997     6.185
    34   6 C        3.755    -0.121    22.885     6.821
    35   1 H        0.925     0.047     2.361     2.403
    36   1 H        0.925     0.049     2.334     2.389
    37   1 H        0.925     0.052     2.298     2.370
    38   6 C        3.755    -0.119    22.829     6.813
    39   1 H        0.925     0.042     2.428     2.437
    40   1 H        0.925     0.054     2.268     2.355
    41   1 H        0.925     0.046     2.366     2.406
    42   5 B        2.630     0.399    16.067     6.772
    43   8 O        1.638    -0.369    20.272     6.078
    44   6 C        3.840     0.127    18.489     6.117
    45   6 C        3.755    -0.127    22.999     6.838
    46   1 H        0.925     0.053     2.282     2.362
    47   1 H        0.925     0.062     2.181     2.310
    48   1 H        0.925     0.049     2.333     2.388
    49   6 C        3.755    -0.124    22.929     6.828
    50   1 H        0.925     0.048     2.342     2.393
    51   1 H        0.925     0.053     2.283     2.363
    52   1 H        0.925     0.050     2.326     2.385
    53   6 C        3.831     0.128    18.487     6.118
    54   8 O        1.638    -0.386    20.588     6.125
    55   6 C        3.755    -0.123    22.905     6.824
    56   1 H        0.925     0.050     2.314     2.379
    57   1 H        0.925     0.053     2.288     2.366
    58   1 H        0.925     0.048     2.342     2.393
    59   6 C        3.755    -0.114    22.735     6.799
    60   1 H        0.925     0.040     2.443     2.444
    61   1 H        0.925     0.051     2.309     2.376
    62   1 H        0.925     0.046     2.374     2.409
    63   5 B        2.619     0.402    16.090     6.788
    64   8 O        1.638    -0.381    20.491     6.110
    65   6 C        3.822     0.125    18.532     6.126
    66   6 C        3.755    -0.131    23.066     6.848
    67   1 H        0.925     0.052     2.292     2.367
    68   1 H        0.925     0.058     2.225     2.333
    69   1 H        0.925     0.054     2.268     2.355
    70   6 C        3.755    -0.129    23.034     6.843
    71   1 H        0.925     0.059     2.206     2.322
    72   1 H        0.925     0.051     2.310     2.377
    73   1 H        0.925     0.053     2.287     2.365
    74   6 C        3.833     0.127    18.495     6.119
    75   8 O        1.637    -0.367    20.234     6.072
    76   6 C        3.755    -0.130    23.061     6.847
    77   1 H        0.925     0.053     2.281     2.362
    78   1 H        0.925     0.059     2.214     2.327
    79   1 H        0.925     0.060     2.200     2.319
    80   6 C        3.755    -0.122    22.895     6.823
    81   1 H        0.925     0.047     2.355     2.400
    82   1 H        0.925     0.045     2.380     2.412
    83   1 H        0.925     0.055     2.260     2.351
    84   1 H        0.926     0.051     2.308     2.376
    85   1 H        0.926     0.046     2.369     2.407
    86   6 C        2.836    -0.034    28.843     8.801
    87   6 C        2.952    -0.028    28.710     8.788
    88   6 C        3.011    -0.002    28.048     8.687
    89   6 C        2.922    -0.042    29.043     8.838
    90   1 H        0.926     0.035     2.517     2.481
    91   6 C        2.925     0.062    26.609     8.459
    92   6 C        3.856    -0.017    20.836     6.492
    93   6 C        3.021    -0.048    29.156     8.857
    94   1 H        0.926     0.030     2.584     2.514
    95  35 Br       1.073    -0.213   190.993    22.283
    96   6 C        3.755    -0.124    22.927     6.827
    97   6 C        3.754    -0.113    22.725     6.798
    98   1 H        0.924     0.053     2.279     2.361
    99   1 H        0.926     0.042     2.419     2.432
   100   1 H        0.925     0.032     2.552     2.498
   101   1 H        0.925     0.048     2.347     2.396
   102   1 H        0.925     0.060     2.195     2.317
   103   1 H        0.925     0.057     2.235     2.338
   104   1 H        0.925     0.046     2.370     2.408
   105   1 H        0.925     0.031     2.569     2.506

 Mol. C6AA /au·bohr⁶  :     120781.413793
 Mol. C8AA /au·bohr⁸  :    3334422.746926
 Mol. α(0) /au        :        539.077684


Wiberg/Mayer (AO) data.
largest (>0.10) Wiberg bond orders for each atom

 ---------------------------------------------------------------------------
     #   Z sym  total        # sym  WBO       # sym  WBO       # sym  WBO
 ---------------------------------------------------------------------------
     1   7 N    3.372 --     6 C    1.398     2 C    1.326    19 Ir   0.394
     2   6 C    3.980 --     3 C    1.351     1 N    1.326    10 C    1.082
     3   6 C    3.989 --     4 C    1.479     2 C    1.351     9 H    0.964
                             6 C    0.107
     4   6 C    3.981 --     3 C    1.479     5 C    1.391    84 H    0.969
     5   6 C    3.982 --     6 C    1.452     4 C    1.391     8 H    0.968
     6   6 C    3.974 --     5 C    1.452     1 N    1.398     7 H    0.951
                             3 C    0.107
     7   1 H    0.994 --     6 C    0.951
     8   1 H    0.996 --     5 C    0.968
     9   1 H    0.998 --     3 C    0.964
    10   6 C    3.979 --    15 C    1.354    11 N    1.317     2 C    1.082
    11   7 N    3.342 --    12 C    1.390    10 C    1.317    19 Ir   0.350
    12   6 C    3.973 --    13 C    1.456    11 N    1.390    18 H    0.948
                            15 C    0.106
    13   6 C    3.981 --    12 C    1.456    14 C    1.389    17 H    0.969
    14   6 C    3.984 --    15 C    1.473    13 C    1.389    85 H    0.969
    15   6 C    3.989 --    14 C    1.473    10 C    1.354    16 H    0.964
                            12 C    0.106
    16   1 H    0.998 --    15 C    0.964
    17   1 H    0.997 --    13 C    0.969
    18   1 H    0.994 --    12 C    0.948
    19  77 Ir   5.052 --    63 B    0.891    42 B    0.881    21 B    0.741
                            86 C    0.545    20 H    0.509     1 N    0.394
                            11 N    0.350
    20   1 H    0.983 --    19 Ir   0.509    86 C    0.370
    21   5 B    3.268 --    33 O    1.105    22 O    1.092    19 Ir   0.741
    22   8 O    2.195 --    21 B    1.092    23 C    0.942
    23   6 C    3.942 --    24 C    0.996    28 C    0.990    22 O    0.942
                            32 C    0.940
    24   6 C    3.993 --    23 C    0.996    26 H    0.983    27 H    0.983
                            25 H    0.980
    25   1 H    0.997 --    24 C    0.980
    26   1 H    0.997 --    24 C    0.983
    27   1 H    0.997 --    24 C    0.983
    28   6 C    3.996 --    23 C    0.990    30 H    0.984    29 H    0.984
                            31 H    0.982
    29   1 H    0.997 --    28 C    0.984
    30   1 H    0.998 --    28 C    0.984
    31   1 H    0.999 --    28 C    0.982
    32   6 C    3.940 --    38 C    0.996    34 C    0.991    33 O    0.940
                            23 C    0.940
    33   8 O    2.196 --    21 B    1.105    32 C    0.940
    34   6 C    3.994 --    32 C    0.991    36 H    0.983    35 H    0.982
                            37 H    0.981
    35   1 H    0.998 --    34 C    0.982
    36   1 H    0.997 --    34 C    0.983
    37   1 H    0.997 --    34 C    0.981
    38   6 C    3.994 --    32 C    0.996    41 H    0.984    39 H    0.983
                            40 H    0.983
    39   1 H    0.998 --    38 C    0.983
    40   1 H    0.997 --    38 C    0.983
    41   1 H    0.997 --    38 C    0.984
    42   5 B    3.340 --    43 O    1.140    54 O    1.093    19 Ir   0.881
    43   8 O    2.241 --    42 B    1.140    44 C    0.939
    44   6 C    3.937 --    45 C    0.997    49 C    0.990    43 O    0.939
                            53 C    0.938
    45   6 C    3.992 --    44 C    0.997    48 H    0.983    47 H    0.982
                            46 H    0.981
    46   1 H    0.997 --    45 C    0.981
    47   1 H    0.996 --    45 C    0.982
    48   1 H    0.996 --    45 C    0.983
    49   6 C    3.994 --    44 C    0.990    50 H    0.984    51 H    0.982
                            52 H    0.981
    50   1 H    0.997 --    49 C    0.984
    51   1 H    0.997 --    49 C    0.982
    52   1 H    0.998 --    49 C    0.981
    53   6 C    3.939 --    55 C    0.996    59 C    0.992    44 C    0.938
                            54 O    0.936
    54   8 O    2.224 --    42 B    1.093    53 C    0.936
    55   6 C    3.994 --    53 C    0.996    58 H    0.983    57 H    0.983
                            56 H    0.982
    56   1 H    0.997 --    55 C    0.982
    57   1 H    0.997 --    55 C    0.983
    58   1 H    0.996 --    55 C    0.983
    59   6 C    3.995 --    53 C    0.992    62 H    0.983    61 H    0.983
                            60 H    0.979
    60   1 H    0.998 --    59 C    0.979
    61   1 H    0.996 --    59 C    0.983
    62   1 H    0.998 --    59 C    0.983
    63   5 B    3.374 --    75 O    1.138    64 O    1.084    19 Ir   0.891
    64   8 O    2.228 --    63 B    1.084    65 C    0.937
    65   6 C    3.938 --    70 C    0.996    66 C    0.992    74 C    0.937
                            64 O    0.937
    66   6 C    3.993 --    65 C    0.992    69 H    0.983    68 H    0.982
                            67 H    0.981
    67   1 H    0.997 --    66 C    0.981
    68   1 H    0.996 --    66 C    0.982
    69   1 H    0.996 --    66 C    0.983
    70   6 C    3.993 --    65 C    0.996    72 H    0.983    73 H    0.982
                            71 H    0.982
    71   1 H    0.996 --    70 C    0.982
    72   1 H    0.996 --    70 C    0.983
    73   1 H    0.997 --    70 C    0.982
    74   6 C    3.933 --    76 C    0.997    80 C    0.990    65 C    0.937
                            75 O    0.935
    75   8 O    2.250 --    63 B    1.138    74 C    0.935
    76   6 C    3.991 --    74 C    0.997    77 H    0.983    78 H    0.982
                            79 H    0.981
    77   1 H    0.996 --    76 C    0.983
    78   1 H    0.996 --    76 C    0.982
    79   1 H    0.996 --    76 C    0.981
    80   6 C    3.994 --    74 C    0.990    83 H    0.982    81 H    0.982
                            82 H    0.981
    81   1 H    0.998 --    80 C    0.982
    82   1 H    0.998 --    80 C    0.981
    83   1 H    0.996 --    80 C    0.982
    84   1 H    0.996 --     4 C    0.969
    85   1 H    0.997 --    14 C    0.969
    86   6 C    3.941 --    87 C    1.389    88 C    1.345    19 Ir   0.545
                            20 H    0.370    93 C    0.100
    87   6 C    3.991 --    89 C    1.428    86 C    1.389    90 H    0.956
    88   6 C    3.976 --    91 C    1.397    86 C    1.345    92 C    0.996
                            89 C    0.103
    89   6 C    3.984 --    87 C    1.428    93 C    1.428    94 H    0.968
                            88 C    0.103
    90   1 H    0.997 --    87 C    0.956
    91   6 C    3.918 --    93 C    1.409    88 C    1.397    95 Br   0.939
    92   6 C    3.992 --    96 C    0.997    97 C    0.997    88 C    0.996
                            98 H    0.953
    93   6 C    3.985 --    89 C    1.428    91 C    1.409    99 H    0.969
                            86 C    0.100
    94   1 H    0.998 --    89 C    0.968
    95  35 Br   1.089 --    91 C    0.939
    96   6 C    3.993 --    92 C    0.997   100 H    0.988   101 H    0.984
                           102 H    0.968
    97   6 C    3.988 --    92 C    0.997   104 H    0.982   105 H    0.980
                           103 H    0.964
    98   1 H    0.997 --    92 C    0.953
    99   1 H    0.997 --    93 C    0.969
   100   1 H    0.999 --    96 C    0.988
   101   1 H    0.997 --    96 C    0.984
   102   1 H    0.996 --    96 C    0.968
   103   1 H    0.997 --    97 C    0.964
   104   1 H    0.997 --    97 C    0.982
   105   1 H    0.999 --    97 C    0.980
 ---------------------------------------------------------------------------

Topologies differ in total number of bonds
Writing topology from bond orders to xtbtopo.mol

molecular dipole:
                 x           y           z       tot (Debye)
 q only:        0.107      -0.194      -2.533
   full:       -1.880      -0.000      -3.442       9.969
molecular quadrupole (traceless):
                xx          xy          yy          xz          yz          zz
 q only:       18.633      -3.102      18.784      -8.598      14.272     -37.417
  q+dip:       25.801       1.089      25.971     -19.576      19.626     -51.773
   full:       23.069       1.982      26.013     -20.608      16.825     -49.082


           -------------------------------------------------
          | TOTAL ENERGY             -149.503892828216 Eh   |
          | GRADIENT NORM               0.037523263761 Eh/α |
          | HOMO-LUMO GAP               0.836959315353 eV   |
           -------------------------------------------------

------------------------------------------------------------------------
 * finished run on 2021/10/08 at 07:31:23.371     
------------------------------------------------------------------------
 total:
 * wall-time:     0 d,  0 h,  0 min,  0.162 sec
 *  cpu-time:     0 d,  0 h,  0 min,  0.948 sec
 * ratio c/w:     5.851 speedup
 SCF:
 * wall-time:     0 d,  0 h,  0 min,  0.118 sec
 *  cpu-time:     0 d,  0 h,  0 min,  0.706 sec
 * ratio c/w:     5.977 speedup

