105
 energy: -149.503892828189 gnorm: 0.000487827722 xtb: 6.4.0 (f63f532)
N        -0.94521191691765   -2.23741992100620   -0.20846348701699
C        -2.24254874554625   -1.89925647189947   -0.29275877599444
C        -3.20117920846066   -2.80603547443857   -0.76262465287224
C        -2.80431040186274   -4.05405266504180   -1.19239719406158
C        -1.44939199030585   -4.37167437633213   -1.15118777338814
C        -0.56965436779291   -3.43629892382953   -0.64228815807866
H         0.48897002805252   -3.64158782717157   -0.57433125029521
H        -1.09227302606303   -5.32995677164608   -1.49117053784403
H        -4.24604495641716   -2.54027898598870   -0.76779472969571
C        -2.59537867603101   -0.54833686825879    0.13070571217058
N        -1.69106300057705    0.10443053185715    0.88488954505003
C        -1.97860978199119    1.33745241005732    1.29167950666491
C        -3.15177517825185    1.99125089053762    0.97370732486363
C        -4.08227418680460    1.33803722110124    0.16979861119427
C        -3.79627571638071    0.05802723299006   -0.25636632638125
H        -4.48639206627854   -0.46115285867223   -0.90176530764241
H        -3.33736359512202    2.98764194209366    1.34134880276028
H        -1.22417694222215    1.80290461734323    1.90549085280207
Ir        0.42150000000051   -0.81649999999972    0.91330000000123
H         0.87259999999997   -2.23029999999952    1.54050000000000
B         0.35900026909031    0.46851006440744   -0.71484767860568
O         0.13964881888394   -0.03130876048764   -1.98498278634234
C        -0.19074228239919    1.03330346204764   -2.88596240970265
C         0.50493707102187    0.80757743335397   -4.22692599458231
H         1.57503971098373    0.68970670424772   -4.09845326144355
H         0.30732813771887    1.64249098745734   -4.89421948725305
H         0.11425137492069   -0.10204029292452   -4.67749071193226
C        -1.70938611703818    0.98787490526574   -3.10892356827600
H        -2.02306231218169    1.74569761693924   -3.82070133812502
H        -1.97560878874227    0.00674939974275   -3.49699015509456
H        -2.23505503261760    1.13244147072778   -2.16804751108263
C         0.27170968378081    2.30658695904874   -2.09960008146717
O         0.31444454298138    1.84391283104482   -0.74329729655524
C         1.69374190471874    2.74434683879522   -2.46973708186494
H         2.37887998001017    1.91694510672003   -2.30384741671570
H         1.74654535737114    3.08228893364058   -3.50051137176825
H         1.99072220468841    3.55910736819425   -1.81427586343436
C        -0.66987453407818    3.50561937593678   -2.20244112577209
H        -1.64260421147547    3.27975213218816   -1.77551560856612
H        -0.24404908383907    4.33940863106937   -1.64968387566738
H        -0.78876055620013    3.79919957392259   -3.24198979853527
B         1.37468204274058    0.76054881662995    1.87923729468055
O         2.62096261313894    1.30169617378504    1.73070737228350
C         2.69125974797728    2.57396211215150    2.38642197706734
C         4.04979243433687    2.73675567997408    3.06557510248154
H         4.25454929562913    1.91708532622078    3.74534072045475
H         4.82382764848885    2.74240191246918    2.30346852143035
H         4.08368638697478    3.67661385488418    3.61013741642368
C         2.54739337792894    3.63637762276775    1.28981004498784
H         2.56832939947622    4.64141499893286    1.70079300069552
H         3.37339290715469    3.51845996537707    0.59312986584107
H         1.62346859891969    3.46382282312249    0.74374741548706
C         1.46269054549618    2.53291515212935    3.36095530673189
O         0.65173564676797    1.49088869630474    2.80279020523668
C         0.65123010945780    3.82660126563651    3.42727672217009
H         0.24030668925370    4.07909425922316    2.45523933759694
H        -0.17273879315173    3.69217053731482    4.12440718015006
H         1.27773661132488    4.64139586260387    3.77981255026520
C         1.83048045434622    2.10732762025706    4.78687229869812
H         2.37386843540152    1.16733504177062    4.76897059895442
H         2.42792206577362    2.86587967604841    5.28306872991291
H         0.91454017382081    1.95266692517879    5.35301053351711
B         2.27820000000064   -1.33089999999637    0.17410000000250
O         2.52915459718914   -2.66910806045575   -0.09981604991203
C         3.75299334638393   -2.82685141933072   -0.82793788948151
C         4.78447190855966   -3.43952431431863    0.12665974603573
H         4.92653475861715   -2.79378614917931    0.98744228535231
H         4.40850257193218   -4.39705340011677    0.47841846946038
H         5.73219748674536   -3.59778878062547   -0.37801395716576
C         3.51329632127675   -3.79656626598515   -1.98613503032312
H         3.27772097131286   -4.77669195326272   -1.57859222682033
H         4.40556766692844   -3.87986224504470   -2.59961298853038
H         2.67796163619335   -3.47241599974393   -2.59812176889396
C         4.09344880521667   -1.35393820163539   -1.25055839681384
O         3.26065159202944   -0.56242194778869   -0.38854104366868
C         5.55631770462312   -0.95443765979770   -1.06730316299346
H         6.19481303339486   -1.58942551412994   -1.67545284613788
H         5.68101771263528    0.07702323650548   -1.38467782072783
H         5.85375016143814   -1.02416820019334   -0.02715429590159
C         3.66222150023327   -1.03394214871349   -2.68780251340246
H         2.59282583854610   -1.20025570997308   -2.79106058851791
H         3.86250116634530    0.01742605576936   -2.88100786547049
H         4.20908733805915   -1.63218089399765   -3.40996094415010
H        -3.53074048780129   -4.76726630090949   -1.55162138104074
H        -5.00302093556662    1.82210135726978   -0.11975590927857
C         0.23590000000368   -1.68139999999010    2.96030000000663
C        -1.12637495225990   -1.60384135700417    3.24559671746070
C         1.14362481497103   -1.77968957724242    4.03267017085105
C        -1.59329652560330   -1.37209685237527    4.52742889379868
H        -1.85712177152106   -1.73067138730518    2.46217968011071
C         0.64641882779158   -1.46991410719906    5.29673971165378
C         2.54372124085999   -2.34998680534443    3.91068359028181
C        -0.68921107280872   -1.22646473197956    5.56054360529504
H        -2.65299374585581   -1.28226965889940    4.71885604294190
Br        1.80994653511543   -1.34516696026716    6.82861608919376
C         2.54359672208662   -3.65730063308720    3.11239940820615
C         3.58195529517500   -1.37320840959364    3.36435808048775
H         2.86414323593864   -2.61655756477895    4.92496205593632
H        -1.01429253088281   -0.97844594642535    6.55961322319267
H         1.73279273096744   -4.30410397139652    3.44252845769108
H         3.48467805720513   -4.17691812566829    3.27917459462995
H         2.43794242651038   -3.46862883062535    2.04998536626275
H         3.31673901114610   -1.04042176573707    2.36500261802153
H         4.55779338615880   -1.85458577602562    3.34845338295956
H         3.65116662650705   -0.49909531135993    4.00740496701658
