105
 energy: -149.375058113644 gnorm: 0.113922986712 xtb: 6.4.0 (f63f532)
N        -0.96509999999997   -2.11529999999999   -0.24089999999998
C        -2.24700000000002   -1.69840000000013   -0.36220000000016
C        -3.14040000000006   -2.36819999999993   -1.21199999999988
C        -2.70219999999998   -3.47560000000006   -1.93049999999989
C        -1.37780000000028   -3.89880000000022   -1.78759999999995
C        -0.54289999999997   -3.18669999999993   -0.93510000000013
H         0.49809999999993   -3.45629999999999   -0.78939999999997
H        -0.99569999999997   -4.76030000000002   -2.32770000000004
H        -4.16499999999998   -2.02890000000000   -1.31830000000010
C        -2.62129999999999   -0.50949999999992    0.44100000000011
N        -1.62600000000002    0.07330000000001    1.16020000000002
C        -1.89679999999973    1.15239999999990    1.91690000000013
C        -3.17230000000008    1.70329999999999    1.99650000000011
C        -4.20509999999996    1.11739999999998    1.26269999999991
C        -3.92610000000003    0.00250000000009    0.47819999999987
H        -4.71959999999993   -0.46419999999997   -0.09520000000014
H        -3.34630000000003    2.57510000000002    2.62069999999997
H        -1.04450000000006    1.57420000000002    2.43690000000004
Ir        0.42150000000000   -0.81650000000000    0.91330000000001
H         0.87260000000000   -2.23030000000000    1.54050000000000
B         0.50670000000000    0.41559999999999   -0.81540000000000
O         0.19500000000000   -0.04699999999999   -2.09149999999996
C         0.00649999999999    1.10039999999998   -2.95430000000005
C         0.49019999999982    0.74740000000005   -4.35779999999992
H         1.51609999999998    0.37380000000001   -4.33699999999998
H         0.44729999999998    1.62239999999999   -5.01670000000002
H        -0.14739999999996   -0.03390000000001   -4.78430000000008
C        -1.50119999999995    1.39559999999999   -2.96669999999993
H        -1.75369999999998    2.21460000000002   -3.64850000000002
H        -2.03200000000000    0.49449999999992   -3.28930000000003
H        -1.85170000000004    1.65210000000001   -1.96219999999993
C         0.84230000000007    2.20669999999995   -2.22040000000001
O         0.75200000000001    1.78260000000002   -0.83689999999999
C         2.32929999999999    2.18619999999998   -2.59899999999993
H         2.74130000000001    1.18500000000005   -2.45749999999998
H         2.48870000000001    2.51300000000001   -3.63180000000000
H         2.87199999999997    2.86270000000001   -1.93200000000011
C         0.28439999999988    3.62290000000002   -2.33660000000002
H        -0.72649999999990    3.69040000000000   -1.92910000000000
H         0.92129999999993    4.31480000000004   -1.77610000000000
H         0.26429999999998    3.94810000000000   -3.38320000000003
B         1.56299999999998    0.60959999999999    1.84840000000000
O         2.92780000000006    0.55230000000001    2.15019999999999
C         3.36329999999967    1.88660000000006    2.50260000000009
C         4.53139999999967    1.78590000000005    3.47740000000029
H         4.27910000000000    1.16089999999999    4.33689999999975
H         5.39390000000011    1.33789999999999    2.97340000000000
H         4.82390000000000    2.77870000000001    3.83820000000004
C         3.79700000000001    2.56849999999999    1.19670000000007
H         4.20020000000001    3.57089999999998    1.37680000000001
H         4.56740000000002    1.95559999999994    0.72110000000007
H         2.95239999999995    2.63259999999999    0.50539999999999
C         2.05039999999983    2.50090000000003    3.09319999999998
O         1.03749999999990    1.81620000000009    2.31909999999993
C         1.89100000000004    4.00450000000004    2.88650000000009
H         1.87289999999999    4.25440000000002    1.82409999999995
H         0.94940000000005    4.34260000000001    3.33169999999996
H         2.71079999999997    4.55149999999994    3.36630000000001
C         1.82470000000018    2.13199999999998    4.56519999999992
H         1.92610000000003    1.05330000000000    4.71320000000001
H         2.52609999999994    2.65279999999997    5.22540000000001
H         0.80629999999991    2.41579999999994    4.84899999999998
B         2.27819999999996   -1.33090000000001    0.17410000000003
O         2.89460000000005   -2.57739999999997    0.38449999999997
C         4.26930000000014   -2.48200000000004   -0.07210000000009
C         5.10899999999996   -2.05379999999999    1.14009999999978
H         4.76349999999999   -1.08739999999997    1.51749999999998
H         4.98049999999997   -2.79469999999997    1.93589999999996
H         6.17419999999994   -1.99290000000000    0.89300000000001
C         4.71950000000009   -3.84660000000001   -0.58470000000002
H         4.75279999999997   -4.56130000000006    0.24419999999989
H         5.72330000000010   -3.78370000000000   -1.02009999999998
H         4.03499999999998   -4.23600000000002   -1.34169999999996
C         4.16440000000007   -1.36219999999992   -1.16299999999995
O         3.08519999999998   -0.55029999999990   -0.65400000000006
C         5.40719999999994   -0.48869999999995   -1.31550000000010
H         6.27320000000003   -1.09010000000004   -1.61529999999999
H         5.23300000000001    0.26929999999993   -2.08589999999996
H         5.64270000000000    0.02649999999996   -0.38240000000001
C         3.71799999999982   -1.89829999999996   -2.53109999999993
H         2.82530000000022   -2.52160000000008   -2.42739999999996
H         3.46089999999998   -1.05249999999995   -3.17550000000008
H         4.50570000000010   -2.48290000000012   -3.01789999999998
H        -3.38500000000014   -4.00130000000010   -2.59310000000000
H        -5.21400000000002    1.52079999999997    1.29960000000000
C         0.23589999999984   -1.68139999999987    2.96029999999990
C        -0.68051660448013   -2.64808037984777    3.41375389066097
C         1.35836570146403   -1.56730293740435    3.90184504689821
C        -0.66885082043425   -3.20716320808744    4.68724732373121
H        -1.35493803921351   -3.09371562715228    2.69396747116954
C         0.96484351702940   -1.62799168141066    5.26398497392744
C         2.87146328857224   -1.96943979032477    3.99055784486990
C         0.05716640219202   -2.57658311751142    5.68806606678281
H        -1.16409436569017   -4.14162067521443    4.91077600421899
Br        1.98244696353216   -0.80104925443153    6.66798094669470
C         3.20262845326348   -3.24872089999412    3.22140137515545
C         4.09611006436128   -1.04406650966566    3.98140129069769
H         2.96338309482885   -2.34318562740581    5.01740252549433
H         0.05710910328877   -2.88161129730559    6.72755014612232
H         2.58896653171866   -4.07932566756849    3.56280893082816
H         4.23900509272360   -3.49754571678831    3.46347613381655
H         3.08540239030388   -3.13137831644750    2.15204649220320
H         4.14944384003761   -0.43389790453288    3.09426518958656
H         5.02191948438568   -1.61864888082020    4.04366321907019
H         4.07663314749576   -0.42153663219301    4.87549778800129
105
 energy: -149.398376953332 gnorm: 0.084606429252 xtb: 6.4.0 (f63f532)
N        -0.96579993655644   -2.11097376762730   -0.24209109896932
C        -2.24298977019724   -1.69755032465094   -0.35715146065649
C        -3.13521732493782   -2.36906682936058   -1.20305957697575
C        -2.70261348874708   -3.47077987393968   -1.91960656042794
C        -1.38204753716535   -3.88934223063930   -1.78054911495577
C        -0.55409205672295   -3.17559857512204   -0.93502677161344
H         0.48186841909703   -3.45205204934141   -0.78824819357800
H        -1.00355967978987   -4.74808187027293   -2.31791123446606
H        -4.15629893273209   -2.03434563234140   -1.30842117474638
C        -2.61540256657370   -0.51844635570783    0.44490618387182
N        -1.62445839377151    0.06160419929045    1.15932293292805
C        -1.90072278028348    1.13575364271167    1.90491967319680
C        -3.16764145487500    1.68717737555667    1.99178907132647
C        -4.19880512010969    1.10237197063791    1.26468989046175
C        -3.91796753944452   -0.00574095341079    0.48420857618503
H        -4.71024968968379   -0.46855057835763   -0.08484852020878
H        -3.34204711254506    2.55279123937398    2.61670024887318
H        -1.05574228596875    1.55799807266184    2.42994660934330
Ir        0.42150000000000   -0.81650000000000    0.91330000000001
H         0.87260000000000   -2.23030000000000    1.54050000000000
B         0.49581959002509    0.41951865135359   -0.79672951513259
O         0.17838952745503   -0.03815454249569   -2.06925470227241
C         0.00571072648257    1.09603547386125   -2.94588333536401
C         0.48326712514100    0.74784697328980   -4.35243074175827
H         1.50356644570837    0.37372191359984   -4.33250733912626
H         0.43659372451984    1.62234805086568   -5.00233428961545
H        -0.15371635769529   -0.02994581390160   -4.77306416448832
C        -1.50074307005530    1.39461639102765   -2.96534368431205
H        -1.74646579806156    2.20814880571202   -3.64655147749652
H        -2.03061849316651    0.49684877311666   -3.28489815846551
H        -1.84684355536802    1.64785669160637   -1.96263126741385
C         0.82987337464791    2.20584138174078   -2.21467613827219
O         0.75303926457626    1.77660279882652   -0.83808025199642
C         2.31408484090671    2.19078454333309   -2.60082933281253
H         2.72154907886891    1.19210844042739   -2.45416561947718
H         2.46790944498897    2.51456838190656   -3.62965581842832
H         2.85617595824583    2.86451511227146   -1.93774651994221
C         0.27555115821196    3.62205943476834   -2.33722514002846
H        -0.72841857616438    3.68850639230976   -1.92526091238559
H         0.91302496188136    4.30686179260040   -1.77882077848224
H         0.25634542314476    3.93891437592777   -3.38023560265580
B         1.55425967973394    0.63693655359701    1.83965560234059
O         2.91625981454515    0.60246978312987    2.09517328159293
C         3.35884769578103    1.91539732286366    2.49491483916858
C         4.53707509389240    1.85297491400069    3.46398547165173
H         4.28868514028010    1.26907722875327    4.33926855202794
H         5.39104860792397    1.38215029159417    2.97436731296660
H         4.82662186899997    2.84353443785782    3.80213977918729
C         3.79591189314198    2.58832286977150    1.19245975042861
H         4.19899868361679    3.58239219589852    1.37521637475315
H         4.56054664929822    1.96998158162071    0.72329316791955
H         2.94831932401545    2.63643261846192    0.51039937249120
C         2.04615246375942    2.51555282751688    3.08460075455964
O         1.02934064916949    1.82134665619523    2.33279410735205
C         1.88770782791268    4.01573219540886    2.88720744203530
H         1.86455374260938    4.25809969074244    1.82839758204908
H         0.95015380985045    4.34294020467839    3.33471063261716
H         2.70902366187408    4.54949570008520    3.36479554948835
C         1.83014938521021    2.14604036328012    4.55577218880269
H         1.93545328100387    1.07224205172084    4.68562858212216
H         2.53055696603553    2.65874430979149    5.21225703655686
H         0.81567055552871    2.41809334042499    4.84765491002318
B         2.27819999999989   -1.33090000000004    0.17409999999998
O         2.90568091729085   -2.56411724502209    0.35774244520276
C         4.27558114998435   -2.48022253528626   -0.10099600504494
C         5.14990342521996   -2.04376705624704    1.07745800374887
H         4.78506795149625   -1.09369479292222    1.45437241363263
H         5.06186775496649   -2.77495732952238    1.86765261721265
H         6.20254567420523   -1.97172619265432    0.82298791838880
C         4.72552951450271   -3.84650264079737   -0.60041300860880
H         4.75563986634151   -4.54716287064800    0.23394939303837
H         5.72325780992565   -3.77733036394453   -1.03155592703165
H         4.03807266697989   -4.23617629123695   -1.34625337890039
C         4.16263043752005   -1.35277705043460   -1.17094338816073
O         3.07163343477360   -0.55982089532252   -0.66110184912157
C         5.40641810464139   -0.48413545316488   -1.32386897346157
H         6.26370759124570   -1.08808245223764   -1.62089007804694
H         5.22845167699372    0.26964206968274   -2.08949380464018
H         5.63583546714817    0.02736748671681   -0.39308142332706
C         3.72056369175903   -1.89433635539305   -2.53593186452106
H         2.83026222331523   -2.51259938681565   -2.42464610501852
H         3.46074977490680   -1.05317793342933   -3.17710715209421
H         4.50935208639377   -2.47208573802595   -3.01533829154552
H        -3.38123410064832   -3.99601742766263   -2.57884222819758
H        -5.20303079923570    1.50455735488977    1.30477510373594
C         0.23589999999987   -1.68139999999996    2.96029999999985
C        -0.71041483777713   -2.62805501810893    3.40279232984767
C         1.34698923094649   -1.56581334568785    3.92582181900901
C        -0.72039080452447   -3.18651704362625    4.67636266149898
H        -1.38716262617712   -3.05845559327471    2.67767549417650
C         0.92725136423843   -1.63447968572306    5.27900433257152
C         2.85974521798433   -1.99989191041952    4.00765654820078
C         0.00632093607062   -2.56875153767387    5.68346530964015
H        -1.23079611095183   -4.11274536368050    4.89304075487146
Br        1.94666569837309   -0.81214711132587    6.69814560200534
C         3.15317031708318   -3.28073921023550    3.22882471864289
C         4.08020204709306   -1.07718378847283    3.99023534145630
H         2.93805966322589   -2.37555483843206    5.03378111129842
H        -0.00937426888476   -2.87567784687423    6.71938542662751
H         2.52614748011247   -4.09890382280820    3.56731719812284
H         4.18302375619698   -3.55007146618363    3.47423722671336
H         3.03099305527784   -3.15506471026520    2.16428875674103
H         4.12414525377567   -0.47082877585795    3.10653512966066
H         4.99954658518539   -1.65735017833124    4.05246333219390
H         4.06174730496737   -0.45293352538071    4.88077891173180
105
 energy: -149.412990452900 gnorm: 0.075741345666 xtb: 6.4.0 (f63f532)
N        -0.96352738290234   -2.11000734506636   -0.24100257812791
C        -2.23825680511508   -1.69952884010507   -0.35034637402433
C        -3.13277697952466   -2.37123200652551   -1.19218885331077
C        -2.70538005937652   -3.46839444232623   -1.90988825435064
C        -1.38519746084247   -3.88456341138768   -1.77504691642329
C        -0.56072928038224   -3.16970833740575   -0.93335613281179
H         0.47314080440686   -3.45012811860241   -0.79085566190338
H        -1.01019027027423   -4.74090015880931   -2.31138898719072
H        -4.15234484099587   -2.03940436860146   -1.29261202782207
C        -2.60805594376938   -0.52983596696876    0.44940211641121
N        -1.61951215929914    0.04725519023857    1.16114694625297
C        -1.90090212946717    1.11582073362361    1.90098947108975
C        -3.16265875083045    1.66840017395419    1.99326855376344
C        -4.19451319646209    1.08348136042253    1.26944707404077
C        -3.91084702080904   -0.01921281556184    0.49067898850393
H        -4.70174534322763   -0.48170340584353   -0.07515566071325
H        -3.33692904718989    2.53010495779575    2.61755046284180
H        -1.06167445234974    1.54306663804008    2.42749438638107
Ir        0.42149999999999   -0.81650000000000    0.91330000000001
H         0.87260000000000   -2.23030000000000    1.54050000000000
B         0.48786850427979    0.42611600496410   -0.77849111490808
O         0.15730112489141   -0.03172336807804   -2.04565869864081
C        -0.00302480124267    1.09090146450129   -2.93102150358211
C         0.47342928899883    0.74417253321183   -4.33890168569589
H         1.49098429426877    0.37035413387679   -4.32371651255582
H         0.42137985834397    1.62193464381544   -4.97798494098648
H        -0.16562451316732   -0.02916573659528   -4.75684921664566
C        -1.50866237880262    1.39393832106467   -2.96118056789642
H        -1.74368393132709    2.20411552866595   -3.64402960978280
H        -2.03614676060783    0.49729010696554   -3.27989807566126
H        -1.85134592910451    1.64603764459437   -1.95951782783686
C         0.81552777674588    2.20369384762538   -2.20485036711770
O         0.75113607273402    1.77531018686179   -0.83425537496458
C         2.29697527016182    2.19598113966595   -2.60186224770991
H         2.70148859577532    1.19881482756564   -2.45084477983239
H         2.43941615879348    2.51628299657473   -3.62975310124366
H         2.83791060532791    2.87130808806466   -1.94378985319256
C         0.25927683627150    3.61896967700462   -2.33301626740535
H        -0.74019482213159    3.68747157057929   -1.91728512067709
H         0.90031454531947    4.30009705519781   -1.78011960755172
H         0.24078526458706    3.92430124922044   -3.37548160822942
B         1.55544507698413    0.65931116388885    1.83786467029875
O         2.91326412126466    0.64243232116416    2.05351540638932
C         3.35239933552300    1.94376057579074    2.47869054399680
C         4.53228962111987    1.89928651621786    3.44939409858605
H         4.29442506367391    1.34345538668596    4.34435031791741
H         5.38348693260847    1.42398680050222    2.96736827676337
H         4.81254234590387    2.90324885213274    3.74740914985044
C         3.79190000784517    2.62605449656092    1.18298144751772
H         4.19654186112107    3.61518659295619    1.36311849054666
H         4.55221923977947    2.00053767693923    0.72151262709511
H         2.94345542086100    2.65945789644742    0.50498733931137
C         2.04114917992215    2.53226499695944    3.07569529825680
O         1.02473582925780    1.82511000588606    2.34424668488732
C         1.87881073646174    4.03137774468038    2.88411171639353
H         1.85049872081054    4.27248876087845    1.82806838442858
H         0.94599023687397    4.35154210762285    3.33800139613274
H         2.70343469617917    4.55315464188324    3.35988910676868
C         1.84024518848296    2.15953660825948    4.54823780928280
H         1.95164212279004    1.08695691221888    4.66262810008221
H         2.53990582315375    2.67163064176873    5.19924735009443
H         0.82762323988038    2.42241109725431    4.84587389119123
B         2.27819999999985   -1.33090000000006    0.17409999999995
O         2.91785399633555   -2.55047222169470    0.34686054761530
C         4.27719487541161   -2.47304075718018   -0.12688660747832
C         5.17064995033427   -2.04093793716698    1.03695357565999
H         4.80481829940722   -1.09260814596228    1.40791511060336
H         5.10362469216695   -2.77036041619702    1.83078831453373
H         6.21125309445199   -1.95938931174030    0.74570674078610
C         4.72575907580332   -3.84061607989382   -0.62513540818966
H         4.75649179342605   -4.52831958204968    0.21597701497471
H         5.72041640963255   -3.76736067691179   -1.05260593177781
H         4.03836210516446   -4.23721262586317   -1.36275658462079
C         4.15583179617056   -1.34276096868732   -1.18611365865046
O         3.05672466926685   -0.56611565301541   -0.67192491923372
C         5.39769894339114   -0.47182980367412   -1.33985324674547
H         6.24744564482453   -1.08153991204505   -1.63256829225958
H         5.21936829009568    0.27740709039329   -2.10470269749252
H         5.62432397154992    0.03879679153691   -0.41138923409385
C         3.71956604769763   -1.88494705000748   -2.55167679961882
H         2.83316306092848   -2.50245252025511   -2.43037358138858
H         3.45706133980842   -1.04825933101802   -3.19282542966268
H         4.51272381702282   -2.45841975916635   -3.02000341440769
H        -3.38303350874785   -3.99419749533983   -2.56432242443425
H        -5.19635919687172    1.48282428926275    1.31345419526355
C         0.23589999999988   -1.68140000000001    2.96029999999982
C        -0.75347308837344   -2.59485812619137    3.38288239842926
C         1.32870251687743   -1.57618442396562    3.94812758850933
C        -0.80288364592863   -3.14991564781844    4.65766084831577
H        -1.43422212632206   -2.99964796317594    2.64718628243342
C         0.88091161930522   -1.64693368651232    5.28945787053214
C         2.84070109187055   -2.02725859740814    4.02616584062269
C        -0.07231842982000   -2.55280551928256    5.67448354187369
H        -1.34581724882936   -4.05969693069217    4.86590776165558
Br        1.90158081665059   -0.83309276011276    6.72548763248197
C         3.10756524365432   -3.30191395359104    3.22420542286836
C         4.04842208549421   -1.09104517387364    3.98964875222245
H         2.90718196341204   -2.40840576883622    5.05224241193523
H        -0.11948600296394   -2.85871213441657    6.70904499589240
H         2.45677526818587   -4.10689937903900    3.55508344087481
H         4.13176396630902   -3.60146201349062    3.45489521826454
H         2.99215900829301   -3.16374812457858    2.16303518053065
H         4.08729365808701   -0.49268654761760    3.10197425270440
H         4.96046016294532   -1.68244468837737    4.05354202506699
H         4.03736188202783   -0.45633226258322    4.87212408679879
105
 energy: -149.425683663103 gnorm: 0.071179968460 xtb: 6.4.0 (f63f532)
N        -0.95807713328136   -2.11183451690117   -0.24111846016505
C        -2.23399104355873   -1.70445075867774   -0.34449825145996
C        -3.13297188733015   -2.37635195538119   -1.18198388120102
C        -2.70918387158784   -3.47147908320683   -1.90248132234422
C        -1.38664296663994   -3.88620797512409   -1.77319999369864
C        -0.56017319574747   -3.16986457886054   -0.93470050681927
H         0.47362139108008   -3.45292313049849   -0.79736831321090
H        -1.01426912823012   -4.74146113762751   -2.31052467481684
H        -4.15301056495921   -2.04506173550724   -1.27543490397614
C        -2.60188135171350   -0.54142332137019    0.45513106065081
N        -1.61254321360565    0.03519792172605    1.16527900831916
C        -1.89734888024515    1.10108560344457    1.90436124989055
C        -3.15905332523091    1.65213474521644    2.00042100915116
C        -4.19290447967203    1.06523315376319    1.27805676581446
C        -3.90657670517704   -0.03455404564576    0.49859959694361
H        -4.69601648844800   -0.49923556990644   -0.06670064823927
H        -3.33353264937624    2.51182339190701    2.62503661465338
H        -1.06189564285929    1.53261911254670    2.43288846231401
Ir        0.42149999999999   -0.81649999999999    0.91330000000001
H         0.87260000000000   -2.23030000000000    1.54050000000000
B         0.47937226600099    0.43403700522020   -0.76285109021405
O         0.13559054300963   -0.02875042468260   -2.02507499680989
C        -0.01700787534331    1.08603529891589   -2.91436739155115
C         0.46114869815253    0.73817238564830   -4.32225960640842
H         1.47842356881133    0.36451207630121   -4.31114699046014
H         0.40589338569752    1.62006818741467   -4.95452186387460
H        -0.18041540262359   -0.03244775146868   -4.74034118125591
C        -1.52213038035599    1.39376362503043   -2.95475248088855
H        -1.74715964118129    2.20289171552058   -3.64082235202891
H        -2.04813961677335    0.49714780709813   -3.27463814805942
H        -1.86616668549221    1.64749549086191   -1.95450750540915
C         0.80053308186371    2.20226552671361   -2.19330048002761
O         0.74823579327004    1.77859332213205   -0.82560995308110
C         2.27947906784687    2.20079607570224   -2.60212169366259
H         2.68570435137355    1.20511663139956   -2.44832596384410
H         2.40943994951663    2.51745822160801   -3.63203056280182
H         2.82064619844889    2.88143962095748   -1.95048537264526
C         0.23991543150148    3.61635115285723   -2.32593692951720
H        -0.75753059206744    3.68721271273775   -1.90659116649189
H         0.88479431392666    4.29902366050708   -1.78013080874044
H         0.21903273667738    3.91151900147747   -3.37063211746073
B         1.55937444813121    0.67726074308795    1.83298990623645
O         2.91576534750077    0.67685610336820    2.01979135577711
C         3.34552899445560    1.97395564241723    2.45940718642833
C         4.52791438594305    1.94359795104628    3.42951990988998
H         4.29955299116340    1.41326313470370    4.34422643825278
H         5.37871482727501    1.46267388995349    2.95540657141248
H         4.80144501882079    2.96318414926703    3.68860705241363
C         3.78534014206542    2.66906721707812    1.16855458856411
H         4.18817186564109    3.65772820516105    1.34881396665412
H         4.54702649707361    2.04279212531892    0.71045276295006
H         2.93718417709983    2.69645795689928    0.49081156949009
C         2.03294450615491    2.54833427671117    3.06753756748437
O         1.01753183119578    1.82849776824713    2.35173487812800
C         1.86443943282854    4.04813294879993    2.87985498204574
H         1.83038462951982    4.29283884141890    1.82512189653974
H         0.93567590180006    4.36572670733782    3.34243442174657
H         2.69367745815437    4.56401783454673    3.35289471394912
C         1.85061177772567    2.17277136906826    4.54311139521959
H         1.97096238448881    1.09959152859229    4.64873914507631
H         2.55128632739523    2.68966727669090    5.18809582323303
H         0.83809892696386    2.42728540709284    4.84745567063964
B         2.27819999999981   -1.33090000000008    0.17409999999993
O         2.92770609088695   -2.54214095732725    0.34552443336875
C         4.27534434132889   -2.46448709344556   -0.15090658549478
C         5.19385710430432   -2.03207107564049    0.99543826165848
H         4.83338104465808   -1.08414214565933    1.37395546055925
H         5.15201342124612   -2.76426322063204    1.79104216319872
H         6.22451737380080   -1.94441001500401    0.66608296985404
C         4.72240825522450   -3.83297325437928   -0.65360406221554
H         4.75820654265530   -4.51375000408079    0.19246569689109
H         5.71566139626780   -3.75715118670542   -1.08303436377515
H         4.03421909389618   -4.23656382181059   -1.38607441598880
C         4.14405725464351   -1.33077340054170   -1.20457603993807
O         3.03997689952920   -0.56535958612362   -0.68638496668457
C         5.38369411147325   -0.45478377175380   -1.35929741456480
H         6.23108496670936   -1.06877940475061   -1.64880784910348
H         5.20602836572972    0.29036237405210   -2.12727920718805
H         5.60984988837546    0.05901723193964   -0.43286175143668
C         3.71440444067330   -1.87469495652687   -2.57163218488103
H         2.83124573477433   -2.49511107948292   -2.44690261831228
H         3.45124982174063   -1.04079301854822   -3.21500992959620
H         4.51376632458560   -2.44520114954329   -3.03143313108221
H        -3.38877814796387   -3.99760658747049   -2.55341566787118
H        -5.19509398420154    1.46129170921045    1.32517476867503
C         0.23589999999989   -1.68140000000005    2.96029999999979
C        -0.80152673416475   -2.55244167848995    3.35798909426911
C         1.30413480970629   -1.59527244212847    3.96549324262434
C        -0.90131115517218   -3.10051280714254    4.63421122410822
H        -1.48507942157338   -2.92711912262772    2.60808388660125
C         0.83205730833929   -1.66238967832997    5.29473285596655
C         2.81076948278529   -2.05223270197373    4.04102524387414
C        -0.16655785106005   -2.52874621123902    5.66293606735026
H        -1.48998510361300   -3.98602800912379    4.83402381305354
Br        1.84983329688214   -0.86618957084892    6.74964402957698
C         3.05468124110646   -3.32111131345274    3.22259091286159
C         4.01034018310675   -1.10993484180196    3.98769285741270
H         2.87762659054374   -2.43838864389397    5.06618749686097
H        -0.25448998278737   -2.83011784076018    6.69743456338801
H         2.37857345885699   -4.11270989072977    3.54096658977845
H         4.07127217859166   -3.65376485773536    3.44368104217652
H         2.94698084815315   -3.16537351025006    2.16241335634605
H         4.03901330514192   -0.52119048421622    3.09114555788410
H         4.92235901011231   -1.70241395204865    4.05323354577235
H         4.00247607527795   -0.46103132670118    4.86034034795455
105
 energy: -149.437363398821 gnorm: 0.066029310484 xtb: 6.4.0 (f63f532)
N        -0.95149604088642   -2.11578661720870   -0.24243780200374
C        -2.22993634478686   -1.71159452662902   -0.33960030225420
C        -3.13315373177476   -2.38430289893314   -1.17255237083099
C        -2.71189963168124   -3.47799266885557   -1.89622989305688
C        -1.38719858475404   -3.89084252560602   -1.77324107086175
C        -0.55640185705201   -3.17360687278439   -0.93848043414660
H         0.47819247501832   -3.45729514154129   -0.80722337401084
H        -1.01687621258929   -4.74564951095379   -2.31264922829124
H        -4.15430751395920   -2.05325877215198   -1.25847466978648
C        -2.59689294520573   -0.55241261153176    0.46184721745374
N        -1.60586155639085    0.02486677136990    1.17126768030067
C        -1.89349918974846    1.08895452323651    1.91277591396954
C        -3.15691859404496    1.63642561731764    2.01104878658800
C        -4.19194415460318    1.04782936938542    1.28970509248480
C        -3.90343329015522   -0.04963575226579    0.50835157924671
H        -4.69151791870238   -0.51741332258018   -0.05687870672377
H        -3.33186942704836    2.49500598752025    2.63682136070731
H        -1.06011503287318    1.52394365148138    2.44184986393718
Ir        0.42149999999999   -0.81649999999999    0.91330000000001
H         0.87260000000000   -2.23030000000000    1.54050000000000
B         0.47082494182791    0.44155677777456   -0.74890772051211
O         0.11411588064988   -0.02596697068237   -2.00661557653068