13
 energy: -17.195610956147 gnorm: 0.024449116937 xtb: 6.4.0 (f63f532)
N         0.70062000000000   -0.01370000000000   -0.01040000000000
C         2.14455000000000    0.01228000000000   -0.03191000000000
C        -0.07671000000000   -1.14000000000000   -0.00310000000000
C        -1.39630000000000   -0.74318000000000   -0.00406000000000
C        -1.41160000000000    0.67219000000000   -0.00395000000000
C        -0.10099000000000    1.09715000000000   -0.00248000000000
H         2.53026000000000   -1.00845000000000    0.02771000000000
H         2.49348000000000    0.59255000000000    0.82582000000000
H         2.46427000000000    0.47829000000000   -0.96737000000000
H         0.36232000000000   -2.12969000000000   -0.00280000000000
H        -2.25457000000000   -1.40249000000000   -0.00482000000000
H        -2.28417000000000    1.31252000000000   -0.00400000000000
H         0.31962000000000    2.09436000000000   -0.00167000000000
13
 energy: -17.196792430200 gnorm: 0.007566758544 xtb: 6.4.0 (f63f532)
N         0.69638272845671   -0.01424570140971   -0.01111535468090
C         2.13906846874836    0.01662525267874   -0.02938188351156
C        -0.08262977785660   -1.12884949600937   -0.00981365641873
C        -1.39788529896612   -0.74050973493856   -0.00245143288064
C        -1.41306015284824    0.66663724378375   -0.00201752252112
C        -0.10713434240652    1.08405266740066   -0.00907993515694
H         2.52146726947354   -1.00002893730758    0.03115106984435
H         2.51285910430435    0.59051271723372    0.82000062487442
H         2.49341183190101    0.47712704265770   -0.95385686649264
H         0.35256038235122   -2.11044831424067   -0.01191250646986
H        -2.25209356873552   -1.39324406412833    0.00273812210880
H        -2.28134704117478    1.30058380754642    0.00364618728721
H         0.30918039675259    2.07361751673321   -0.01093684598240
13
 energy: -17.196854678405 gnorm: 0.002694760084 xtb: 6.4.0 (f63f532)
N         0.69658572108311   -0.01342510125730   -0.01114075090376
C         2.13531648155567    0.01643931512876   -0.03073935290510
C        -0.08141685137245   -1.12491381166860   -0.00780798240813
C        -1.39609626677809   -0.74019275477836   -0.00265842818342
C        -1.41227442595634    0.66624778640327   -0.00230830121068
C        -0.10717581118084    1.08116547111122   -0.00710034666460
H         2.51581352149002   -1.00077101970721    0.02961574636597
H         2.51417204192017    0.58958565441130    0.81726764774153
H         2.49604821554334    0.47671028996453   -0.95322730917281
H         0.35236591813302   -2.10554612595514   -0.00925786980447
H        -2.24910596180051   -1.39118601252966    0.00102513741151
H        -2.28014881636127    1.29753600545337    0.00165512445007
H         0.30669623372417    2.07018030342382   -0.00835331471612
13
 energy: -17.196860473272 gnorm: 0.000912170333 xtb: 6.4.0 (f63f532)
N         0.69709652272196   -0.01278633083357   -0.01188614578983
C         2.13435452235111    0.01604058773398   -0.02984557284780
C        -0.08053865538228   -1.12405868748052   -0.00957315960930
C        -1.39558236084153   -0.74045915121457   -0.00236000766534
C        -1.41221941713108    0.66659301550143   -0.00198962338042
C        -0.10693771666763    1.08117794769500   -0.00889979786559
H         2.51487647369319   -1.00144473182933    0.03070361126937
H         2.51394226964182    0.58901882914897    0.81836608815526
H         2.49713294330531    0.47618426877288   -0.95188189623956
H         0.35246527516354   -2.10537986600403   -0.01163392546230
H        -2.24874717668422   -1.39110618627077    0.00306459153767
H        -2.28064056176559    1.29694511861201    0.00369446382132
H         0.30557788159541    2.07110518616850   -0.01078862592347
13
 energy: -17.196861418398 gnorm: 0.000579581197 xtb: 6.4.0 (f63f532)
N         0.69763775869907   -0.01212595673882   -0.01226323533033
C         2.13402416847711    0.01569711510009   -0.03026294374962
C        -0.07984428642067   -1.12364167261342   -0.00873661506192
C        -1.39526061311561   -0.74077838885342   -0.00231237754084
C        -1.41223101261401    0.66692493768415   -0.00202903207151
C        -0.10678947880365    1.08159514767157   -0.00818096414853
H         2.51481491239841   -1.00197885132720    0.03005440322024
H         2.51458378302402    0.58815230748715    0.81826803428811
H         2.49785620175257    0.47585824429628   -0.95213257063095
H         0.35211887638707   -2.10588028943202   -0.01073090851681
H        -2.24885643960426   -1.39109707054651    0.00247318972272
H        -2.28138750223526    1.29644737125996    0.00292089666188
H         0.30411363205520    2.07265710601219   -0.01009787684244
