13
 energy: -17.196861418414 gnorm: 0.000579239502 xtb: 6.4.0 (f63f532)
N         0.69763775869907   -0.01212595673882   -0.01226323533033
C         2.13402416847711    0.01569711510009   -0.03026294374962
C        -0.07984428642067   -1.12364167261342   -0.00873661506192
C        -1.39526061311561   -0.74077838885342   -0.00231237754084
C        -1.41223101261401    0.66692493768415   -0.00202903207151
C        -0.10678947880365    1.08159514767157   -0.00818096414853
H         2.51481491239841   -1.00197885132720    0.03005440322024
H         2.51458378302402    0.58815230748715    0.81826803428811
H         2.49785620175257    0.47585824429628   -0.95213257063095
H         0.35211887638707   -2.10588028943202   -0.01073090851681
H        -2.24885643960426   -1.39109707054651    0.00247318972272
H        -2.28138750223526    1.29644737125996    0.00292089666188
H         0.30411363205520    2.07265710601219   -0.01009787684244
