108
 energy: -153.733175681690 gnorm: 0.936430295244 xtb: 6.4.0 (f63f532)
N        -0.96510000000000   -2.11530000000000   -0.24090000000000
C        -2.24700000000000   -1.69840000000000   -0.36220000000000
C        -3.14040000000000   -2.36820000000000   -1.21200000000000
C        -2.70220000000000   -3.47560000000000   -1.93050000000000
C        -1.37780000000000   -3.89880000000000   -1.78760000000000
C        -0.54290000000000   -3.18670000000000   -0.93510000000000
H         0.49810000000000   -3.45630000000000   -0.78940000000000
H        -0.99570000000000   -4.76030000000000   -2.32770000000000
H        -4.16500000000000   -2.02890000000000   -1.31830000000000
C        -2.62130000000000   -0.50950000000000    0.44100000000000
N        -1.62600000000000    0.07330000000000    1.16020000000000
C        -1.89680000000000    1.15240000000000    1.91690000000000
C        -3.17230000000000    1.70330000000000    1.99650000000000
C        -4.20510000000000    1.11740000000000    1.26270000000000
C        -3.92610000000000    0.00250000000000    0.47820000000000
H        -4.71960000000000   -0.46420000000000   -0.09520000000000
H        -3.34630000000000    2.57510000000000    2.62070000000000
H        -1.04450000000000    1.57420000000000    2.43690000000000
Ir        0.42150000000000   -0.81650000000000    0.91330000000000
H         0.87260000000000   -2.23030000000000    1.54050000000000
B         0.50670000000000    0.41560000000000   -0.81540000000000
O         0.19500000000000   -0.04700000000000   -2.09150000000000
C         0.00650000000000    1.10040000000000   -2.95430000000000
C         0.49020000000000    0.74740000000000   -4.35780000000000
H         1.51610000000000    0.37380000000000   -4.33700000000000
H         0.44730000000000    1.62240000000000   -5.01670000000000
H        -0.14740000000000   -0.03390000000000   -4.78430000000000
C        -1.50120000000000    1.39560000000000   -2.96670000000000
H        -1.75370000000000    2.21460000000000   -3.64850000000000
H        -2.03200000000000    0.49450000000000   -3.28930000000000
H        -1.85170000000000    1.65210000000000   -1.96220000000000
C         0.84230000000000    2.20670000000000   -2.22040000000000
O         0.75200000000000    1.78260000000000   -0.83690000000000
C         2.32930000000000    2.18620000000000   -2.59900000000000
H         2.74130000000000    1.18500000000000   -2.45750000000000
H         2.48870000000000    2.51300000000000   -3.63180000000000
H         2.87200000000000    2.86270000000000   -1.93200000000000
C         0.28440000000000    3.62290000000000   -2.33660000000000
H        -0.72650000000000    3.69040000000000   -1.92910000000000
H         0.92130000000000    4.31480000000000   -1.77610000000000
H         0.26430000000000    3.94810000000000   -3.38320000000000
B         1.56300000000000    0.60960000000000    1.84840000000000
O         2.92780000000000    0.55230000000000    2.15020000000000
C         3.36330000000000    1.88660000000000    2.50260000000000
C         4.53140000000000    1.78590000000000    3.47740000000000
H         4.27910000000000    1.16090000000000    4.33690000000000
H         5.39390000000000    1.33790000000000    2.97340000000000
H         4.82390000000000    2.77870000000000    3.83820000000000
C         3.79700000000000    2.56850000000000    1.19670000000000
H         4.20020000000000    3.57090000000000    1.37680000000000
H         4.56740000000000    1.95560000000000    0.72110000000000
H         2.95240000000000    2.63260000000000    0.50540000000000
C         2.05040000000000    2.50090000000000    3.09320000000000
O         1.03750000000000    1.81620000000000    2.31910000000000
C         1.89100000000000    4.00450000000000    2.88650000000000
H         1.87290000000000    4.25440000000000    1.82410000000000
H         0.94940000000000    4.34260000000000    3.33170000000000
H         2.71080000000000    4.55150000000000    3.36630000000000
C         1.82470000000000    2.13200000000000    4.56520000000000
H         1.92610000000000    1.05330000000000    4.71320000000000
H         2.52610000000000    2.65280000000000    5.22540000000000
H         0.80630000000000    2.41580000000000    4.84900000000000
B         2.27820000000000   -1.33090000000000    0.17410000000000
O         2.89460000000000   -2.57740000000000    0.38450000000000
C         4.26930000000000   -2.48200000000000   -0.07210000000000
C         5.10900000000000   -2.05380000000000    1.14010000000000
H         4.76350000000000   -1.08740000000000    1.51750000000000
H         4.98050000000000   -2.79470000000000    1.93590000000000
H         6.17420000000000   -1.99290000000000    0.89300000000000
C         4.71950000000000   -3.84660000000000   -0.58470000000000
H         4.75280000000000   -4.56130000000000    0.24420000000000
H         5.72330000000000   -3.78370000000000   -1.02010000000000
H         4.03500000000000   -4.23600000000000   -1.34170000000000
C         4.16440000000000   -1.36220000000000   -1.16300000000000
O         3.08520000000000   -0.55030000000000   -0.65400000000000
C         5.40720000000000   -0.48870000000000   -1.31550000000000
H         6.27320000000000   -1.09010000000000   -1.61530000000000
H         5.23300000000000    0.26930000000000   -2.08590000000000
H         5.64270000000000    0.02650000000000   -0.38240000000000
C         3.71800000000000   -1.89830000000000   -2.53110000000000
H         2.82530000000000   -2.52160000000000   -2.42740000000000
H         3.46090000000000   -1.05250000000000   -3.17550000000000
H         4.50570000000000   -2.48290000000000   -3.01790000000000
H        -3.38500000000000   -4.00130000000000   -2.59310000000000
H        -5.21400000000000    1.52080000000000    1.29960000000000
C         0.23590000000000   -1.68140000000000    2.96030000000000
C        -1.02770502559910   -2.18964651677670    3.41026585493123
C         1.23931745085300   -1.80379122655901    3.92658923671192
C        -2.36743217644683   -2.42516425324858    2.72250250092561
C        -1.25320441793522   -2.52760222811121    4.74761927998391
C         1.03510621264724   -2.26941428949157    5.21957504566342
H         2.24754046090369   -1.56007912894517    3.62191322070198
C        -3.07814575207151   -1.10141905928591    2.78977957143012
H        -2.28462346815332   -2.67848762670258    1.65960546309092
H        -2.92555188364759   -3.24258002437368    3.18489167200686
C        -0.23208042071620   -2.60852482330287    5.66690810949454
H        -2.26036487537944   -2.80840348383885    5.03780187200782
H         1.87471649708928   -2.40885808554015    5.88675334655347
N        -2.62133435385142   -0.35749224221194    1.76688451472779
C        -4.08007301783333   -0.27404081332078    3.25888193441851
H        -0.44271192824359   -2.97957208584312    6.66161815963218
C        -2.08809404580654    1.24848520706335    0.56339434677123
C        -4.16568052776917    1.02692249945192    2.61504560479674
H        -4.79383197001541   -0.51729712860465    4.03096476067914
C        -3.36420543556664    2.00147396733235    0.74627078240255
H        -1.31501175616218    1.63094531327340   -0.10510052874582
H        -4.90560045811234    1.60617754317152    3.17963345233182
H        -3.46911631735347    2.98408955093478    0.29783727769517
108
 energy: -154.044916142267 gnorm: 0.463965526638 xtb: 6.4.0 (f63f532)
N        -0.95731313351622   -2.11979375908225   -0.24603976248153
C        -2.25026000261448   -1.71196647374403   -0.36701762514835
C        -3.14170034319898   -2.37283998010525   -1.21699228191788
C        -2.70485651404527   -3.47316619035987   -1.93106507905311
C        -1.37429124084785   -3.89757766910499   -1.78582038187687
C        -0.54474018284147   -3.18545861711676   -0.93881999110756
H         0.49434622815368   -3.45626306671347   -0.79040086941793
H        -0.99658756044972   -4.75755839585213   -2.32573291489131
H        -4.16257115357889   -2.03047281544764   -1.31853746088613
C        -2.65119481714940   -0.55519744010571    0.41886257717747
N        -1.58324620068601    0.06804418852559    1.14491528934980
C        -1.83808558786823    1.20283620704467    1.93761895404454
C        -3.15523115186014    1.75481129131332    2.06218417126634
C        -4.27583710775800    1.10730968811519    1.22884622889512
C        -3.99052250598119   -0.03199626426200    0.42111234136947
H        -4.74994487778317   -0.48093716144409   -0.12863702814220
H        -3.31648805638869    2.62799725685396    2.65531769913520
H        -1.00762807313224    1.58753667243201    2.45476992602565
Ir        0.42150000000000   -0.81650000000000    0.91330000000000
H         0.87260000000000   -2.23030000000000    1.54050000000000
B         0.51083284322817    0.41026725765971   -0.81203064850219
O         0.19247739545769   -0.04099122516408   -2.08716440873350
C         0.00955498845905    1.09938514435052   -2.95402419108171
C         0.49075638650111    0.74836738971910   -4.35947457050363
H         1.51352490184290    0.37432538295463   -4.33646966947422
H         0.44719247040844    1.62161463129038   -5.01419347815829
H        -0.14584282136891   -0.03176730332366   -4.78208125783843
C        -1.50022232019195    1.39641268264369   -2.96944629397150
H        -1.75100914729517    2.21254169982989   -3.64846737349754
H        -2.03016737227126    0.49675329055912   -3.28879892560192
H        -1.85104637249225    1.65152968055206   -1.96860423019354
C         0.84081714399090    2.20673280285054   -2.21986981947734
O         0.75223647623627    1.77801680097297   -0.84186515255817
C         2.32867488201856    2.18750888874570   -2.59969656808058
H         2.73856183816465    1.18722049709380   -2.45647142000671
H         2.48717201878834    2.51268755639043   -3.62945500588048
H         2.87036453878299    2.86150438383983   -1.93327700250691
C         0.28426550469578    3.62453903824737   -2.33763651658240
H        -0.72389687940812    3.69031795920128   -1.92982338049239
H         0.92039530791528    4.31240273528403   -1.77715448080300
H         0.26503830205117    3.94627580790613   -3.38103338659664
B         1.56527458494073    0.61058223004811    1.85204648492110
O         2.92413333640629    0.55723615162731    2.14757000372432
C         3.36239143428396    1.88485922223525    2.50421074770117
C         4.53266638766007    1.78671600692197    3.47878945790815
H         4.27928645127624    1.16167937159546    4.33436140065227
H         5.39110217062715    1.33877999700047    2.97444707923785
H         4.82219980748431    2.77687423038844    3.83703211447255
C         3.79758708763894    2.56952259812961    1.19846112804237
H         4.19986337767145    3.56825373157570    1.37827813198843
H         4.56520390811703    1.95692148144654    0.72304050389966
H         2.95368282093552    2.63043208255572    0.50896815467124
C         2.05034050084636    2.50171882535617    3.09072718546763
O         1.03827949677006    1.81309080862593    2.32255239151935
C         1.89130179740204    4.00636846680279    2.88724353377576
H         1.87263119490425    4.25298695391238    1.82690917669370
H         0.95154523100987    4.34089831295755    3.33112321910814
H         2.70946813220819    4.54875198941118    3.36564590440892
C         1.82483253073220    2.13293064901194    4.56538212519527
H         1.92578295165759    1.05571495961270    4.71108616210807
H         2.52460892016137    2.65212292169371    5.22234430787970
H         0.80851906190281    2.41510843721664    4.84848079550888
B         2.27820000000000   -1.33090000000000    0.17410000000000
O         2.89666865241974   -2.56947433124973    0.38443409566833
C         4.26719099460350   -2.48280471308811   -0.07299745335898
C         5.10990886444888   -2.05476913358946    1.13927791215812
H         4.76211882819510   -1.09072096957151    1.51538061181991
H         4.97999414454589   -2.79303842082046    1.93339187598046
H         6.17128297160045   -1.99397905409150    0.89221823734870
C         4.72089706913459   -3.84779949085393   -0.58535654304798
H         4.75178793474678   -4.55869259889167    0.24256224196729
H         5.72101331529747   -3.78241814945063   -1.01887040312673
H         4.03610430283120   -4.23471319358191   -1.33916127398413
C         4.16498992309480   -1.36116328537793   -1.16058373721519
O         3.08214197515622   -0.55644735899131   -0.65322844822728
C         5.40926087896163   -0.48867938257887   -1.31595012087238
H         6.27054774951528   -1.08998614897069   -1.61431150223993
H         5.23286105316763    0.26696720209789   -2.08381460874438
H         5.64128664172924    0.02487844485266   -0.38433555456815
C         3.71946596482562   -1.89891487105864   -2.53100787968832
H         2.82726281046641   -2.51896771072567   -2.42613922815233
H         3.46198226556989   -1.05459493235289   -3.17343870603386
H         4.50534368123853   -2.48061578078462   -3.01563227280002
H        -3.38379512796212   -3.99927751740388   -2.59157033205261
H        -5.26052098089315    1.52220867488384    1.24827039444794
C         0.23590000000000   -1.68140000000000    2.96030000000000
C        -1.02839646053036   -2.19245071114599    3.41572441033353
C         1.24170868459154   -1.80248102366340    3.92688680882780
C        -2.36706154252945   -2.43309869117040    2.72657962937208
C        -1.24860442334136   -2.52771164984344    4.75193773090087
C         1.03793493727411   -2.26773166944113    5.21998893878695
H         2.24865218883660   -1.55852573490455    3.62193926885392
C        -3.07703112878424   -1.12202538740370    2.80847731224855
H        -2.28338210209367   -2.67966034206987    1.66278528396477
H        -2.92301418652444   -3.24581367341651    3.18838040673760
C        -0.22865748009304   -2.60696508983468    5.66712979422802
H        -2.25564841386463   -2.80825691289203    5.04118428884462
H         1.87744802971052   -2.40622523720281    5.88606959367152
N        -2.62078783563816   -0.41319184981335    1.78911355950220
C        -4.08170828696496   -0.30340595093708    3.28192618992459
H        -0.43767817209776   -2.97735581098263    6.66180485105981
C        -2.03736258059678    1.31472970909262    0.53168299610269
C        -4.20495797784218    0.99689371690731    2.68303176245697
H        -4.79473281953450   -0.52885925855155    4.04238558416060
C        -3.34701438833328    2.04641755820840    0.69644025950850
H        -1.28829424697808    1.65146200305559   -0.12638964931092
H        -4.92514506603820    1.59896482785181    3.20971072272647
H        -3.46599489023350    3.00751142977426    0.27792842679608
108
 energy: -154.215027028177 gnorm: 0.281527522266 xtb: 6.4.0 (f63f532)
N        -0.95835531427455   -2.12040279703983   -0.25291690817685
C        -2.25465525768160   -1.72059877086571   -0.37623586948014
C        -3.14085574925830   -2.37804509673549   -1.22502946190782
C        -2.70429445111378   -3.47534160031960   -1.93445497385374
C        -1.37362125709740   -3.89663503995073   -1.78637401298547
C        -0.55029514396335   -3.18361619579472   -0.94156471013943
H         0.48841116360051   -3.45548627043912   -0.79160863325916
H        -0.99863239954349   -4.75447750229141   -2.32447281821690
H        -4.15843230467282   -2.03333857349876   -1.31926902575151
C        -2.70674336863153   -0.59281556680839    0.40858150009554
N        -1.55400674745854    0.08319442952819    1.13440195215076
C        -1.77711953797121    1.27097551503282    1.94922821316248
C        -3.14170234461389    1.80869532845620    2.13220195748371
C        -4.34205219971849    1.09430372149473    1.19574292846133
C        -4.05131104923017   -0.05861580471623    0.35133892137549
H        -4.79764008245629   -0.49582062324262   -0.19696482370752
H        -3.27969498132373    2.69161915128577    2.69209115939450
H        -0.95235455439803    1.60967625991514    2.48332928449573
Ir        0.42150000000000   -0.81650000000000    0.91330000000000
H         0.87260000000000   -2.23030000000000    1.54050000000000
B         0.51831371333328    0.40433179642395   -0.80949571933014
O         0.18856196562467   -0.03534052645291   -2.08249393542680
C         0.01255367242023    1.09791493277603   -2.95284386958910
C         0.49193278835825    0.74906932579499   -4.36013238959727
H         1.51169495414859    0.37452160952696   -4.33585174150119
H         0.44701384745434    1.62156575379449   -5.01009172738389
H        -0.14439222391881   -0.02938137979316   -4.77917742344314
C        -1.49862027194209    1.39732503104381   -2.97403317368445
H        -1.74622763592042    2.21085221588723   -3.65096761674762
H        -2.02753562121146    0.49878720892489   -3.28985910069137
H        -1.85101054581828    1.65106358913551   -1.97749643305902
C         0.83946041790497    2.20588756215726   -2.21854922181792
O         0.75685979564390    1.77297913106894   -0.84741347169974
C         2.32765151801643    2.18922587532896   -2.60059816412940
H         2.73452025383295    1.18964671141579   -2.45477218893518
H         2.48463315288401    2.51272944669407   -3.62757646233490
H         2.86815099530158    2.86077716592834   -1.93447705773596
C         0.28422090695126    3.62537384849873   -2.33837121130985
H        -0.72128491900157    3.69049285890684   -1.93028431811746
H         0.92005250754113    4.30928565351542   -1.77805984120563
H         0.26636628503043    3.94324422286650   -3.37922513567356
B         1.56852144350808    0.61267216384245    1.85737099757913
O         2.92053442526691    0.56316614095820    2.14336009302652
C         3.36113466257923    1.88311179228190    2.50594614447819
C         4.53324609330779    1.78715088120333    3.48035711697274
H         4.27910757503687    1.16187496274072    4.33209153674004
H         5.38776885964310    1.33961426085696    2.97518950350633
H         4.81928128087540    2.77538668871243    3.83556201505816
C         3.79850274641243    2.57061337389363    1.20121856950931
H         4.19978633990242    3.56571372627110    1.38148164286459
H         4.56310284936812    1.95802208518342    0.72595252943636
H         2.95452359550537    2.62728433717383    0.51437187231419
C         2.05062275158803    2.50247374995949    3.08889760828251
O         1.04118724386740    1.80994723441782    2.32757856587363
C         1.89178105214289    4.00776037980959    2.88794201105125
H         1.87211512986112    4.25142080422489    1.82958491997642
H         0.95363434954860    4.33832702778739    3.33088569323043
H         2.70885708377573    4.54496000077999    3.36548618609039
C         1.82520241937864    2.13432566758753    4.56560332366793
H         1.92550074854706    1.05840719794998    4.70755331101424
H         2.52380904406775    2.65227578559174    5.21868794886135
H         0.81067330048051    2.41455193462462    4.84755688420534
B         2.27820000000001   -1.33090000000000    0.17410000000001
O         2.89972850957283   -2.56069219414373    0.38559062362885
C         4.26439846819413   -2.48310497707287   -0.07370743037965
C         5.11077050221302   -2.05631036859707    1.13794618546651
H         4.75950856745657   -1.09484265907548    1.51213192380268
H         4.97892588858869   -2.79193398030103    1.93044182875495
H         6.16832327090219   -1.99566920672992    0.89018465049996
C         4.72146711621550   -3.84846378217466   -0.58588538505087
H         4.75025349127128   -4.55539727961094    0.24149322758308
H         5.71842448538093   -3.77968926200819   -1.01724865948086
H         4.03669757308562   -4.23350628579085   -1.33664585301253
C         4.16503909756704   -1.36008527878527   -1.15772104563206
O         3.07800181200884   -0.56315735533259   -0.65389435044186
C         5.41072621452944   -0.48898071695307   -1.31572289578775
H         6.26714571431496   -1.09119256829085   -1.61286796627927
H         5.23227777719786    0.26412196074726   -2.08157713030345
H         5.63965989806999    0.02323369438440   -0.38569303234056
C         3.72163345902814   -1.89935802724446   -2.53045501707251
H         2.82970549715763   -2.51574717507002   -2.42359311257374
H         3.46377354063470   -1.05644797298515   -3.17082208357539
H         4.50648795600390   -2.47803753530131   -3.01224049508497
H        -3.38077851468213   -4.00011904724209   -2.59210207399755
H        -5.31022133952239    1.52625788949396    1.18698079283477
C         0.23590000000001   -1.68140000000000    2.96029999999999
C        -1.02752202224599   -2.19737763942276    3.42313136530510
C         1.24486465286354   -1.79990748287653    3.92651402514070
C        -2.36728976221749   -2.44989712585045    2.73889823042082
C        -1.24144996693061   -2.52790660647082    4.75896501972906
C         1.04369608519594   -2.26439963186315    5.22038334136800
H         2.25072751064305   -1.55512859355500    3.62125208940602
C        -3.07319856867392   -1.14297429054553    2.82921889276395
H        -2.28177710719299   -2.68468224916530    1.67268870499373
H        -2.91798209373699   -3.26120860925564    3.19898649520018
C        -0.22116911262848   -2.60405101395756    5.66934749070978
H        -2.24791875517615   -2.80840969217488    5.04817680560407
H         1.88358451641437   -2.40101352925642    5.88495113469458
N        -2.60758606869608   -0.46662259130402    1.80382937160619
C        -4.07565136727599   -0.34524598476290    3.30622522609778
H        -0.42763914176720   -2.97326668301856    6.66401416928619
C        -1.99003922351937    1.39411435850122    0.51281027040175
C        -4.23073631684247    0.97228558191739    2.72225993011112
H        -4.79585366463301   -0.55396723009155    4.06259302070297
C        -3.33421069138812    2.06651260016625    0.67854923662776
H        -1.25242047882906    1.68266562693082   -0.15973012635638
H        -4.94360737281913    1.59423758814811    3.22535326027963
H        -3.47507316933125    3.02480738532645    0.26831148125805
108
 energy: -154.337252067455 gnorm: 0.239660710617 xtb: 6.4.0 (f63f532)
N        -0.97247052879510   -2.11669396602175   -0.25782617514990
C        -2.26118533029831   -1.72618871899733   -0.38959611286840
C        -3.13900587531408   -2.38340295019508   -1.24007359846445
C        -2.69950895075913   -3.48160529021140   -1.94308122667686
C        -1.37647367985664   -3.89541866705840   -1.79017527404453
C        -0.55840548246861   -3.17835714872156   -0.94303392731296
H         0.48014467508399   -3.45196531653687   -0.79121253172723
H        -1.00039332747426   -4.75240250880930   -2.32382038341198
H        -4.15490258026990   -2.03848759752498   -1.32327023420554
C        -2.78792708088000   -0.63073578945157    0.40902575394154
N        -1.53034387299109    0.12549404926545    1.13514326864436
C        -1.71062714660355    1.35841264194098    1.95792471552662
C        -3.11942029579328    1.86458291303681    2.20986707588650
C        -4.40925121604733    1.06658086716742    1.16196410349221
C        -4.10488327948821   -0.09127497530790    0.28222657669231
H        -4.85210385050688   -0.50212169468083   -0.30041752259092
H        -3.22794196030101    2.77111550417534    2.74000144853807
H        -0.88127621535271    1.64407895194171    2.52324551445905
Ir        0.42150000000000   -0.81650000000000    0.91330000000000
H         0.87260000000000   -2.23030000000000    1.54050000000000
B         0.52580744425266    0.39987431804846   -0.80779008928783
O         0.18379766803320   -0.03187021400306   -2.07841292783059
C         0.01481038541173    1.09640937948794   -2.95106597702219
C         0.49366552586736    0.74932905985391   -4.35938572282064
H         1.51143447103506    0.37440102329485   -4.33523067272654
H         0.44700788809839    1.62257772388480   -5.00504705613957
H        -0.14338171134262   -0.02724589160736   -4.77633750887068
C        -1.49661411736099    1.39807992133151   -2.97979464569720
H        -1.73991764877677    2.21011563057577   -3.65628850485227
H        -2.02462749940540    0.50007388205513   -3.29327725065236
H        -1.85214075115305    1.65126931217414   -1.98680565153949
C         0.83907521578415    2.20442441037275   -2.21663287816007
O         0.76668188379626    1.76849092111617   -0.85174798287424
C         2.32666168320345    2.19092871496303   -2.60184759663133
H         2.73041914360747    1.19169070053355   -2.45296138723018
H         2.48179730418743    2.51337726809654   -3.62708316383311
H         2.86579211987013    2.86097992397877   -1.93543982406588
C         0.28432681074443    3.62495502506497   -2.33832450935267
H        -0.71944521917478    3.69102954696980   -1.93009890329185
H         0.92048838851414    4.30619802403980   -1.77836928328410
H         0.26807987705148    3.93953135759841   -3.37816244766426
B         1.57232216168037    0.61510644399989    1.86252199882052
O         2.91905258057343    0.56785341459943    2.13836476167751
C         3.36071505014393    1.88172211644537    2.50758774693948
C         4.53320242474561    1.78675421007849    3.48195862818157
H         4.27858688627170    1.16111905334698    4.33101956054298
H         5.38506674784789    1.34001537447719    2.97554899511508
H         4.81574777284019    2.77457245231040    3.83446873922300
C         3.79959676761970    2.57152064601988    1.20457744794283
H         4.20006527934406    3.56417603933741    1.38599329717881
H         4.56190802089430    1.95866947504652    0.72938619058809
H         2.95463059171547    2.62411553401672    0.52060067904097
C         2.05178322186124    2.50279465700719    3.08828095809496
O         1.04673206118591    1.80735679955774    2.33251374870136
C         1.89264339358169    4.00811337157053    2.88862585529993
H         1.87151784111814    4.25011283851542    1.83158826094963
H         0.95530158466962    4.33536440097499    3.33135028404142
H         2.70944923133290    4.54117505010795    3.36615613238082
C         1.82605649740120    2.13580226875745    4.56582065156182
H         1.92547213764366    1.06054984380428    4.70361795990020
H         2.52414029373750    2.65329339946387    5.21582415657915
H         0.81222732540964    2.41416143313278    4.84639954082313
B         2.27820000000001   -1.33090000000000    0.17410000000001
O         2.90250301378075   -2.55382532192519    0.38817660360580
C         4.26155231692185   -2.48285905797605   -0.07391957601752
C         5.11127517116820   -2.05799196746648    1.13627554169211
H         4.75637425642894   -1.09860972649162    1.50859643922095
H         4.97759764544252   -2.79191690341226    1.92763054168384
H         6.16619766604371   -1.99760752190241    0.88720204221657
C         4.72072757997236   -3.84825682886127   -0.58625255845824
H         4.74846087665659   -4.55215331177561    0.24129847419354
H         5.71606239665726   -3.77590078355940   -1.01569892350450
H         4.03644872415930   -4.23273070184950   -1.33511475461084
C         4.16450515734866   -1.35914934954362   -1.15527555264356
O         3.07363159332060   -0.56822882545588   -0.65628012426727
C         5.41105113736076   -0.48948502758714   -1.31464095415974
H         6.26375325529883   -1.09361710527507   -1.61113262762146
H         5.23139963189210    0.26156779661298   -2.07973061090632
H         5.63831780418515    0.02210119218667   -0.38585260191776
C         3.72407630469688   -1.89943345969164   -2.52949580317521
H         2.83214052996751   -2.51285028968358   -2.42047340204725
H         3.46613233665095   -1.05735848049258   -3.16835854029365
H         4.50923878268396   -2.47578803997671   -3.00846656412195
H        -3.37719797691862   -4.00577382900351   -2.59520636797865
H        -5.37027400611525    1.52360596812660    1.11118038788666
C         0.23590000000001   -1.68140000000000    2.96029999999999
C        -1.02556347500156   -2.20297629488038    3.43122562823552
C         1.24829279935769   -1.79621259058417    3.92512455056784
C        -2.36905838272081   -2.47099871802237    2.75591160838666
C        -1.23245204532493   -2.52825572848933    4.76797272818830
C         1.05221642063614   -2.25964884811735    5.22050156710612
H         2.25345815563390   -1.54998652503802    3.61946445182834
C        -3.07525258229253   -1.16128878112034    2.84753836289812
H        -2.27985611067451   -2.69601259850838    1.68865680758106
H        -2.91063629437682   -3.28549765999938    3.21574318457259
C        -0.20982819380018   -2.60011281501660    5.67376069908969
H        -2.23769602616487   -2.80899488351328    5.05902332208861
H         1.89325144248195   -2.39350134797524    5.88323718261035
N        -2.58589963664860   -0.51336137178942    1.79972291224939
C        -4.06541932808725   -0.38868391631049    3.33228508726226
H        -0.41299793811864   -2.96768102542872    6.66879428159968
C        -1.94625912679355    1.48247840379255    0.50591408218790
C        -4.24481452732372    0.95385958909454    2.73904399885822
H        -4.79403389266553   -0.58614087714934    4.08850356513581
C        -3.32567614589936    2.06807529408306    0.68045628360463
H        -1.21499568886151    1.72136342993204   -0.20233481894905
H        -4.96255351250158    1.58437552013013    3.23571609491701
H        -3.49634846173407    3.03193173628941    0.26123976507231
108
 energy: -154.429256825891 gnorm: 0.230623745241 xtb: 6.4.0 (f63f532)
N        -0.98958180561524   -2.11112228356438   -0.26121048932882
C        -2.27424623079282   -1.73375605303995   -0.40172172280997
C        -3.14172086696959   -2.39468234776335   -1.25907842987719
C        -2.69637241009110   -3.49031115855743   -1.95713040486952
C        -1.37764442210071   -3.89489950700404   -1.79533490431027
C        -0.56497180266706   -3.16979657356670   -0.94617590023971
H         0.47171714219418   -3.44615488515578   -0.79110297597862
H        -0.99758160010353   -4.75234338129344   -2.32314694358021
H        -4.15569768100957   -2.04919886514346   -1.33456694028403
C        -2.88762697029767   -0.67509353184477    0.40936949370598