108
 energy: -154.659788956045 gnorm: 0.000587419804 xtb: 6.4.0 (f63f532)
N        -1.02567225655710   -2.06673600984855   -0.53641671477412
C        -2.18207382510779   -1.50355580511887   -0.91722911831835
C        -2.83684153678803   -1.89588376150269   -2.08464434672143
C        -2.27087905462933   -2.86825785619372   -2.88712266226657
C        -1.07099641132157   -3.44160376189364   -2.48843312421428
C        -0.49860005010762   -3.00979791184144   -1.30562243314202
H         0.42568708518494   -3.43853074832590   -0.94413469826418
H        -0.59630656165801   -4.20878506725008   -3.07864389476147
H        -3.77941825008829   -1.44913823667515   -2.35707100124212
C        -2.73232174354436   -0.48912709003416   -0.01352461554471
N        -1.54859977768885    0.83459140873367    1.66567770642778
C        -2.05647201294787    1.67468381211382    2.69743001905786
C        -3.58223090381160    1.90444775703444    2.68867693915279
C        -4.37296063259246    1.18765380816609    0.77553607103487
C        -3.80356666954655    0.27926129230846   -0.25262026411927
H        -4.28804547625711    0.27224111579017   -1.21717603624179
H        -3.93993749827731    2.54672878692630    3.48723450368753
H        -1.40747717149411    1.85767972261941    3.53807669884577
Ir        0.42150000000008   -0.81650000000005    0.91330000000013
H         0.87259999999989   -2.23030000000004    1.54049999999981
B         0.38724064608835    0.55502569590282   -0.66070870494314
O        -0.21075747013668    0.22654992231364   -1.86889788287929
C        -0.23071715920173    1.35227775429059   -2.74699852753120
C         0.10905144940715    0.89583041840542   -4.16456762515048
H         1.03895673972649    0.33741834501972   -4.17467204186404
H         0.18760617126230    1.75296114668099   -4.82885737711943
H        -0.68250358365422    0.24215560979000   -4.52402569649244
C        -1.65955017837723    1.91576578144901   -2.73538675441061
H        -1.75238614018140    2.76548680891881   -3.40572483347625
H        -2.34238007544289    1.13268439743698   -3.05856930527578
H        -1.93858989792204    2.20925776160224   -1.72578341331037
C         0.81076668403872    2.31735165545712   -2.09090273023545
O         0.85909609460094    1.85433214330339   -0.73806895147718
C         2.21935706252218    2.13965789952027   -2.67328455291803
H         2.52237684822582    1.10237093503612   -2.55327451500305
H         2.25809075781143    2.43361056391481   -3.71848859280911
H         2.91415222097918    2.75643371405062   -2.10794726848591
C         0.43359296148337    3.79844156275891   -2.12561110284982
H        -0.48656608874053    3.98755329069136   -1.58073629565040
H         1.22751235264629    4.37835552429411   -1.66015362954022
H         0.31745975561053    4.12929490412393   -3.15470759342074
B         1.59455778420009    0.65517484616764    1.75680622735743
O         2.96699041288019    0.75678764325489    1.76009866987855
C         3.35924250830449    2.04598287209643    2.24736689894729
C         4.59629603244883    1.90779035426099    3.13433523828094
H         4.43591497550963    1.17379046155806    3.91692708151760
H         5.43416571442560    1.57536261863789    2.52661065327251
H         4.84685571562133    2.86703658694109    3.57922049697318
C         3.70463660642513    2.89019923891491    1.01483473384973
H         4.00240608633683    3.89812683886403    1.28846404030871
H         4.52399042426877    2.41041402128819    0.48386238526625
H         2.84321118795156    2.90980755808960    0.35271025362168
C         2.06616132906315    2.54393443286128    2.98349582509120
O         1.03870722684715    1.71551493279238    2.42633922856845
C         1.71539614274591    4.01060993588339    2.73716477779214
H         1.50487553811009    4.17890701530405    1.68642340453945
H         0.82454535133855    4.26291123461704    3.30685444845852
H         2.53151441737170    4.65317444336515    3.05641519432056
C         2.09586391864056    2.27722190083092    4.49410480427983
H         2.28166460057451    1.22310394546512    4.67944696122330
H         2.85158999081047    2.88263715231751    4.98540675506200
H         1.12185950059858    2.52204208143352    4.91129364250679
B         2.27819999999955   -1.33089999999963    0.17410000000023
O         3.08996187244857   -2.27957366076586    0.75491239055317
C         4.34492776467220   -2.34512874233441    0.06633017324435
C         5.35460173827008   -1.56693508341041    0.91592369054275
H         4.97576518376113   -0.56170768174008    1.07667963331825
H         5.43563074794628   -2.05296974833786    1.88481968949269
H         6.33416527726684   -1.54034967618188    0.44881330064954
C         4.78773710431461   -3.80391738542187   -0.04442677441378
H         4.97090979350509   -4.19035012174128    0.95455897478822
H         5.70381855974623   -3.87402769190617   -0.62418944154352
H         4.01916073859904   -4.41541367769432   -0.50477280818263
C         4.02382443968229   -1.64284232314047   -1.29975725517286
O         2.83682089110448   -0.89103870149815   -1.00257216124214
C         5.11226646628841   -0.69860254695300   -1.80609001505047
H         6.04809736414367   -1.23650164459662   -1.93035614379827
H         4.81235642938490   -0.29056101033669   -2.76809595579377
H         5.25092292169108    0.12657748253564   -1.11626868340061
C         3.65945966006910   -2.63402809208085   -2.41353830795238
H         2.85852815290666   -3.28868863229376   -2.08156932692372
H         3.29815027400051   -2.07369411766840   -3.27236554699528
H         4.52153679949626   -3.22279073184089   -2.71135350002485
H        -2.75832125282729   -3.17919276881197   -3.79932285326002
H        -5.34585802129088    1.54750608350314    0.43585988048588
C         0.23590000000058   -1.68139999999910    2.96030000000038
C        -1.00021641486818   -2.06360956035067    3.48611425535359
C         1.27856106819990   -1.44372079925362    3.86029617600427
C        -2.17829420496493   -2.42500182762923    2.61068124907264
C        -1.19766331350107   -2.06738069690227    4.86460166560923
C         1.08060555328356   -1.46489705279655    5.22846724623230
H         2.26367110577570   -1.24367545387136    3.46658317865623
C        -2.82480673409693   -1.13780618666345    2.20464343492854
H        -1.82739669964793   -2.94405111553326    1.71746314066902
H        -2.88173022770597   -3.05585538294809    3.15492509820124
C        -0.17306270230541   -1.76335483299178    5.73902904480103
H        -2.17209240382642   -2.33025353639128    5.25555052915703
H         1.90223908886166   -1.26177376191672    5.90197040176923
N        -2.05608120919275   -0.42591863320510    1.23764474669054
C        -3.96098058170274   -0.63425513212865    2.67811762790880
H        -0.34361050129111   -1.77917894919780    6.80614539765548
C        -1.96180057117625    2.13775209800795    1.27446230023994
C        -4.47033406490889    0.70780838213080    2.27164789526038
H        -4.52793200417769   -1.17375228834956    3.42331320392830
C        -3.48550185422379    2.37110698492369    1.23273372852234
H        -1.22210106651510    2.75409302599813    0.78817491866746
H        -5.49171898002265    0.83262103860796    2.63489598087789
H        -3.77812689265717    3.36746869913393    0.91510371397140
