107
 energy: -165.309567906080 gnorm: 0.080347831989 xtb: 6.4.1 (1a32961)
N        -0.96510000000000   -2.11530000000002   -0.24090000000001
C        -2.24700000000000   -1.69840000000001   -0.36220000000000
C        -3.14040000000001   -2.36820000000000   -1.21199999999999
C        -2.70220000000002   -3.47559999999998   -1.93050000000000
C        -1.37779999999999   -3.89880000000005   -1.78759999999996
C        -0.54290000000000   -3.18670000000001   -0.93509999999996
H         0.49810000000000   -3.45630000000000   -0.78940000000000
H        -0.99570000000000   -4.76029999999999   -2.32769999999998
H        -4.16500000000000   -2.02889999999999   -1.31830000000000
C        -2.62129999999999   -0.50950000000000    0.44100000000001
N        -1.62600000000000    0.07330000000000    1.16020000000000
C        -1.89679999999999    1.15240000000001    1.91690000000000
C        -3.17230000000000    1.70330000000001    1.99650000000000
C        -4.20510000000000    1.11740000000000    1.26270000000001
C        -3.92610000000000    0.00250000000000    0.47820000000001
H        -4.71960000000000   -0.46420000000000   -0.09520000000000
H        -3.34630000000000    2.57510000000000    2.62070000000000
H        -1.04450000000000    1.57420000000000    2.43690000000000
Ir        0.42150000000000   -0.81650000000000    0.91330000000000
H         0.87260000000000   -2.23030000000000    1.54050000000000
B         0.50670000000000    0.41559999999999   -0.81540000000000
O         0.19500000000000   -0.04700000000002   -2.09149999999999
C         0.00650000000000    1.10040000000000   -2.95430000000000
C         0.49019999999999    0.74740000000003   -4.35779999999998
H         1.51609999999999    0.37380000000000   -4.33700000000000
H         0.44730000000000    1.62239999999997   -5.01670000000001
H        -0.14740000000000   -0.03390000000000   -4.78430000000000
C        -1.50120000000001    1.39560000000001   -2.96670000000000
H        -1.75370000000000    2.21459999999999   -3.64850000000000
H        -2.03200000000000    0.49449999999999   -3.28930000000001
H        -1.85170000000000    1.65210000000000   -1.96220000000000
C         0.84229999999999    2.20670000000001   -2.22039999999999
O         0.75200000000000    1.78259999999999   -0.83689999999999
C         2.32930000000000    2.18620000000004   -2.59900000000002
H         2.74130000000001    1.18500000000000   -2.45749999999999
H         2.48870000000000    2.51300000000000   -3.63180000000001
H         2.87200000000000    2.86270000000001   -1.93200000000000
C         0.28440000000001    3.62290000000001   -2.33660000000000
H        -0.72650000000000    3.69040000000000   -1.92910000000000
H         0.92130000000001    4.31480000000000   -1.77610000000000
H         0.26430000000000    3.94810000000000   -3.38319999999999
B         1.56300000000000    0.60960000000000    1.84840000000000
O         2.92780000000000    0.55230000000000    2.15020000000000
C         3.36330000000000    1.88660000000000    2.50259999999999
C         4.53140000000000    1.78590000000001    3.47739999999999
H         4.27910000000000    1.16090000000000    4.33689999999999
H         5.39390000000000    1.33790000000000    2.97340000000001
H         4.82390000000000    2.77870000000001    3.83820000000000
C         3.79700000000001    2.56850000000000    1.19670000000000
H         4.20020000000000    3.57090000000000    1.37680000000000
H         4.56740000000000    1.95560000000000    0.72110000000000
H         2.95240000000000    2.63260000000000    0.50540000000000
C         2.05040000000000    2.50090000000000    3.09320000000000
O         1.03750000000000    1.81620000000000    2.31910000000001
C         1.89100000000000    4.00450000000001    2.88649999999998
H         1.87290000000000    4.25440000000000    1.82410000000005
H         0.94940000000000    4.34260000000000    3.33170000000000
H         2.71080000000000    4.55149999999999    3.36629999999999
C         1.82470000000000    2.13200000000001    4.56520000000001
H         1.92610000000000    1.05329999999999    4.71320000000000
H         2.52610000000000    2.65280000000000    5.22540000000000
H         0.80630000000001    2.41580000000000    4.84900000000000
B         2.27820000000000   -1.33090000000000    0.17410000000000
O         2.89460000000001   -2.57740000000000    0.38450000000000
C         4.26930000000000   -2.48200000000000   -0.07209999999999
C         5.10900000000000   -2.05380000000001    1.14010000000000
H         4.76350000000000   -1.08740000000000    1.51750000000000
H         4.98050000000000   -2.79470000000000    1.93589999999999
H         6.17420000000000   -1.99290000000000    0.89300000000000
C         4.71950000000000   -3.84660000000000   -0.58470000000000
H         4.75280000000000   -4.56130000000000    0.24420000000000
H         5.72330000000000   -3.78370000000000   -1.02010000000000
H         4.03500000000000   -4.23600000000000   -1.34170000000000
C         4.16440000000001   -1.36220000000000   -1.16300000000001
O         3.08520000000000   -0.55030000000000   -0.65400000000000
C         5.40719999999999   -0.48870000000001   -1.31550000000000
H         6.27320000000000   -1.09010000000000   -1.61530000000000
H         5.23300000000000    0.26930000000001   -2.08590000000001
H         5.64270000000000    0.02650000000000   -0.38240000000001
C         3.71800000000000   -1.89830000000002   -2.53110000000001
H         2.82530000000000   -2.52159999999999   -2.42740000000000
H         3.46090000000000   -1.05249999999999   -3.17550000000000
H         4.50570000000001   -2.48289999999999   -3.01790000000000
H        -3.38499999999999   -4.00129999999999   -2.59310000000000
H        -5.21400000000000    1.52080000000001    1.29960000000000
C         0.23590000000000   -1.68140000000000    2.96029999999998
C        -0.95225940517649   -2.31172330584211    3.41138541503902
C         1.26147149749857   -1.63316655979862    3.89714339422219
N        -1.15973243288889   -2.68347458045851    4.66568957528275
C        -2.09751085872863   -2.74437483401385    2.54884157097790
C         1.11270122329835   -2.13180195920034    5.20532331130317
H         2.23577729054157   -1.27040120259678    3.59461591905915
C        -0.16531867826629   -2.63258650190540    5.56194240209430
H        -2.70755017839336   -3.44123271214406    3.12368842381641
H        -1.73314078518558   -3.23899105430371    1.65098663501742
H        -2.72635973526438   -1.90199094251250    2.26679005024537
C         2.16047270292188   -2.25508211542456    6.13822510508343
C        -0.37829553063994   -3.22633748818740    6.80983149161074
C         1.95812585791323   -2.87633710886670    7.35024491404495
H         3.14342396141009   -1.88506856298518    5.87694418707553
C         0.68512215537275   -3.36462138789035    7.68302564273314
H        -1.36134656417498   -3.61208579340612    7.04746644435077
H         2.77390414888058   -3.00338374252560    8.05055889318173
C         0.45523296428708   -4.12971073806954    8.95151994678991
F        -0.71928037127235   -3.82563043816140    9.55151564718318
F         0.40894526945559   -5.47021978654106    8.74562969107879
F         1.40736681502228   -3.94354665090662    9.89126586310585
107
 energy: -165.317240681546 gnorm: 0.046268727420 xtb: 6.4.1 (1a32961)
N        -0.95305388061173   -2.07380782452532   -0.29296837318059
C        -2.23111368346038   -1.66320767930753   -0.40390687490002
C        -3.13243836392102   -2.35199421378581   -1.22348134250359
C        -2.70495853830087   -3.46302764589651   -1.92765120247394
C        -1.38527039406114   -3.88178996649305   -1.78960640698893
C        -0.55006332609516   -3.15586797397059   -0.96221534039120
H         0.48034742572164   -3.44339497353452   -0.80126294992545
H        -1.01137259107843   -4.74849994280145   -2.31565002368124
H        -4.15615491419482   -2.02451433631494   -1.31784309544839
C        -2.60361868227808   -0.48687605054369    0.40083123708719
N        -1.61281596932093    0.09049269674094    1.11777171324058
C        -1.89543008671595    1.14697945785641    1.88355774295696
C        -3.16530536477959    1.68925923785157    1.98067329828866
C        -4.19571003965329    1.10672089945501    1.25206338377362
C        -3.91150639272982    0.00912186003089    0.45908591055059
H        -4.70524876459495   -0.46107423108678   -0.10057590352916
H        -3.34183757242436    2.54751187458524    2.61372250854977
H        -1.05400438105302    1.56106233349951    2.41880862297681
Ir        0.42150000000000   -0.81650000000000    0.91330000000000
H         0.87260000000000   -2.23030000000000    1.54050000000000
B         0.49341946333929    0.42325660260702   -0.79154128265028
O         0.17676245893964   -0.03580179303550   -2.06300374956323
C         0.01114584839246    1.09637425118957   -2.94354921012193
C         0.49022534489486    0.74699490690926   -4.34855215381152
H         1.50931300347878    0.37062354637015   -4.32764489623764
H         0.44520943103053    1.62235040223039   -4.99702237822262
H        -0.14840522389195   -0.02886076574978   -4.76928984647211
C        -1.49314030264770    1.39853988762093   -2.96962084887755
H        -1.73165700213977    2.21140128739522   -3.65372568233403
H        -2.02313505577019    0.50163707973256   -3.29004876172394
H        -1.84009771307364    1.65379680333899   -1.96822682824935
C         0.83301670278362    2.20633236555096   -2.21211659787790
O         0.75695758995245    1.77869322823031   -0.83482357726901
C         2.31561962286066    2.19037613319660   -2.59949855687230
H         2.72042736857719    1.19139422045723   -2.45018956001810
H         2.46722003256096    2.51218890490623   -3.62903149300356
H         2.85776795422991    2.86524211391000   -1.93816289511524
C         0.28105109806222    3.62234825564406   -2.33885698650885
H        -0.72241911967753    3.69134870992776   -1.92707179645434
H         0.92032308819632    4.30638142747284   -1.78228054176476
H         0.26356996116272    3.93513184780307   -3.38292875286287
B         1.56616485079177    0.62431337500107    1.84408124315170
O         2.92395740299192    0.56692236866630    2.13391434151680
C         3.36306177690445    1.88789977960240    2.50852742173330
C         4.53215060296993    1.78889545917312    3.47998613982323
H         4.27935242147853    1.16214206089319    4.33113812858242
H         5.38749169619615    1.34428380698942    2.97294624343261
H         4.81528053792975    2.77887519621320    3.83606578973096
C         3.79937234399799    2.57439639620097    1.21006591552275
H         4.20086404523583    3.56979178029245    1.39435516155070
H         4.56346696258763    1.96259724894424    0.73353806246151
H         2.95146217692797    2.62723014362067    0.52842395378185
C         2.05235187489498    2.50547193930965    3.08866230664113
O         1.03992674048596    1.81069886720946    2.33322968276838
C         1.89343076019958    4.00748602563403    2.88882367720369
H         1.86853094663359    4.25137077907839    1.83059912561685
H         0.95592375893871    4.33641036679662    3.33534677956732
H         2.71363549699372    4.54352457929909    3.36554344407736
C         1.83053283497907    2.14063202337584    4.56099917434218
H         1.93209927211103    1.06521662846467    4.70114022755234
H         2.53109099429024    2.66187084010921    5.21076092782894
H         0.81617414862188    2.41904380928140    4.84592062142174
B         2.27820000000000   -1.33090000000001    0.17410000000000
O         2.90029706726864   -2.56107699338262    0.39294008191889
C         4.26498228119789   -2.48323999355835   -0.07681751161198
C         5.10960900623525   -2.05822796441173    1.12887268277690
H         4.75413130865532   -1.09779256528241    1.49994245643603
H         4.97894780659065   -2.79440567874415    1.92118866144277
H         6.16718780443609   -1.99826199785026    0.87679543829486
C         4.71962801584950   -3.84539344557291   -0.58674913907081
H         4.74971769134264   -4.55017057607422    0.24293732461561
H         5.71736837606676   -3.77379155362185   -1.01888644552606
H         4.03441343061509   -4.23298603624402   -1.33582319288156
C         4.16572089838657   -1.36038251207050   -1.15742511009390
O         3.07312349509937   -0.56376882638578   -0.66151419573835
C         5.40888263952866   -0.49181456809053   -1.31486963795082
H         6.26514094052697   -1.09733293376759   -1.61071448822946
H         5.23073713462686    0.25922915581638   -2.08324702491710
H         5.63709566773610    0.02279692433070   -0.38598849588469
C         3.72856087510118   -1.89936056411095   -2.52558456781170
H         2.83670248764258   -2.51517354235141   -2.41764682421697
H         3.47157580137256   -1.05775018198794   -3.16740790112771
H         4.51864218927564   -2.47623504074996   -3.00332610202151
H        -3.38678824535622   -3.99453636513456   -2.57713309462045
H        -5.20132584264291    1.50270892219078    1.29952098360758
C         0.23590000000000   -1.68140000000002    2.96029999999998
C        -0.95693015079100   -2.31781134253656    3.41983929835760
C         1.26336034802526   -1.62973504599777    3.89490630441422
N        -1.15818058831691   -2.68564840378959    4.66816107049321
C        -2.09988306635450   -2.75072186491763    2.55581345593674
C         1.11633521150727   -2.12821161535902    5.20615221750763
H         2.23541794991767   -1.26661807246824    3.59165344999095
C        -0.16297944542105   -2.63156704678354    5.56345554102415
H        -2.70809572356908   -3.44693369526826    3.12869683505982
H        -1.73464038251375   -3.24304036859976    1.66048986264259
H        -2.72679079374993   -1.91052767561064    2.27420083535755
C         2.16435167467352   -2.25028684047159    6.14118165608960
C        -0.37195288169118   -3.22543566220817    6.81640878062150
C         1.96238857750409   -2.86863203610849    7.34904149861590
H         3.14482320770759   -1.88023413747555    5.88057052807474
C         0.68838179035669   -3.35938070487871    7.68390519633632
H        -1.35142664438607   -3.61133184633633    7.05501389063981
H         2.77615084106407   -2.99378478960340    8.04781118578846
C         0.46310872479952   -4.12165020758659    8.95225186917254
F        -0.70856935975592   -3.81983202396221    9.55350125415877
F         0.41910881807834   -5.46160620007159    8.74818739720310
F         1.41517541012941   -3.93377205305239    9.88749885213238
107
 energy: -165.319549208488 gnorm: 0.034276655467 xtb: 6.4.1 (1a32961)
N        -0.94418644133619   -2.05698573436341   -0.31664022450730
C        -2.21671881315305   -1.64076347461495   -0.43112608567755
C        -3.12363197624554   -2.32944975622995   -1.24263202190111
C        -2.70769497442968   -3.44525678263478   -1.93810067582918
C        -1.38907805777774   -3.86442397538711   -1.80393749259679
C        -0.55308154372180   -3.13651273524285   -0.98416327055853
H         0.47549583630134   -3.42796919881589   -0.83035183060736
H        -1.02484644564600   -4.73944149267385   -2.31655516413620
H        -4.14679631967780   -2.00567360122964   -1.32679757840431
C        -2.58518917285376   -0.47230451213657    0.36998138809897
N        -1.59932447940205    0.09504383072109    1.09524573170031
C        -1.88892755299476    1.14318711684165    1.85888390849547
C        -3.15567302967723    1.68288149934508    1.96283632485591
C        -4.18525294237399    1.10281339292790    1.23245460099066
C        -3.89375006190204    0.01993371353156    0.42883121573059
H        -4.68498562626869   -0.45221420987468   -0.12759472602388
H        -3.33610639060703    2.52711872315587    2.60821713517560
H        -1.05497405321033    1.55759800538235    2.40210082585123
Ir        0.42150000000000   -0.81650000000000    0.91330000000000
H         0.87260000000000   -2.23030000000000    1.54050000000000
B         0.50272552223433    0.43421236225954   -0.77007675691111
O         0.16096228959710   -0.02535157082348   -2.03236093381509
C         0.00911317778725    1.09398303618184   -2.92341171076360
C         0.49218345135296    0.73992204670210   -4.32617421162968
H         1.50747892423109    0.36015034382324   -4.30699438810578
H         0.44658714038948    1.61839975399564   -4.96449826264029
H        -0.15043224112849   -0.02971858688487   -4.74520646633786
C        -1.49348131193228    1.40473043991889   -2.96867281000150
H        -1.71353466325147    2.21357074186135   -3.65847469822665
H        -2.02252287872520    0.51031847773085   -3.29028744711320
H        -1.84307363910983    1.66333765011636   -1.97153003002581
C         0.82738713628438    2.20672479049368   -2.19899655892842
O         0.76507028612052    1.78281486210641   -0.82628041588251
C         2.30706568404131    2.19607025379768   -2.59719314614084
H         2.70884320519031    1.19869096361973   -2.44113532188924
H         2.44502167265478    2.51063648167404   -3.62744197610346
H         2.84905579126634    2.87529520190178   -1.94411199703434
C         0.27234042576919    3.62084546380917   -2.33447714236619
H        -0.72688089215217    3.69506350015964   -1.91929163181908
H         0.91647195383776    4.30352164299751   -1.78733061185377
H         0.25551133351669    3.91676491026813   -3.37980516111012
B         1.56603309606747    0.62548743903189    1.86406844354832
O         2.92236683132129    0.57720963529155    2.12272547242856
C         3.36121456813604    1.88926260171633    2.51108344064189
C         4.52871831536562    1.78960597781784    3.48486602547196
H         4.27828751189945    1.15974850994254    4.33122331013980
H         5.38130884665201    1.35106924379809    2.97411458479793
H         4.80232093238639    2.77917256422341    3.83836045543719
C         3.80239893241136    2.58672481190769    1.22068692895427
H         4.20089328153191    3.57785953328237    1.41282679006537
H         4.56551068879030    1.97741439547096    0.74439125179033
H         2.95315126192946    2.63379509562305    0.54359511562477
C         2.05274567591341    2.50640362374263    3.08996238870746
O         1.04212705702536    1.80289015871411    2.34896775592492
C         1.89545535797024    4.00802801865619    2.88757645579811
H         1.86308812093840    4.25013287508169    1.83152349835385
H         0.96285572823212    4.33290597935316    3.34002348180693
H         2.71882139954885    4.53523984648509    3.36016473142035
C         1.83931162517427    2.15084380689600    4.56641223784999
H         1.94266239081102    1.07717412678389    4.70226716714419
H         2.54206057769471    2.67601930275541    5.20471929240803
H         0.82696817491462    2.42661170826819    4.85160640049064
B         2.27820000000000   -1.33090000000004    0.17409999999999
O         2.90220730642564   -2.54788506486104    0.40296158034724
C         4.25770456065163   -2.48123456786498   -0.07671827317340
C         5.11324853393184   -2.06027034021608    1.12202010151395
H         4.75248776086081   -1.10308428618015    1.49020084510094
H         4.98360076100399   -2.79549210053474    1.91150443764254
H         6.16489562577290   -2.00110133162997    0.86079700320157
C         4.71107413347432   -3.84308538706901   -0.58912167508753
H         4.74331958475056   -4.54116986423702    0.24209269100186
H         5.70474880709745   -3.76212031659154   -1.01976412636863
H         4.02600346453309   -4.23225809196545   -1.33370467310989
C         4.16063352646487   -1.36025615372104   -1.15515475144811
O         3.05956533973789   -0.57356865781364   -0.66988142998093
C         5.40504060280023   -0.49327902334692   -1.30833727914203
H         6.25333846151696   -1.10618240608453   -1.59845882281459
H         5.22833583650565    0.25085390725792   -2.07958363161262
H         5.62979638423190    0.02341596315692   -0.38269215282156
C         3.73868485713985   -1.90282708629652   -2.52703432259597
H         2.84800839364340   -2.51591760667359   -2.41844494107906
H         3.48549193979027   -1.06305264363497   -3.16903729775158
H         4.53530466006232   -2.47487264601576   -2.99155128699077
H        -3.39573243078990   -3.98740972196518   -2.56772643930905
H        -5.19240941080722    1.48542735098225    1.29501358137298
C         0.23590000000001   -1.68140000000003    2.96029999999999
C        -0.95982703650460   -2.32396462916704    3.42507128704324
C         1.26356510257255   -1.62649429840675    3.89265758461905
N        -1.15443984043448   -2.69133492947890    4.66832895370608
C        -2.09897482031350   -2.74664216012123    2.54960931057996
C         1.11888001388104   -2.12312272228469    5.20643136658234
H         2.23345713139925   -1.26088730866750    3.58868916970814
C        -0.15907737619018   -2.63062446652829    5.56428622284131
H        -2.71004290662614   -3.44550960927959    3.11525227333869
H        -1.72943510164311   -3.23222571651224    1.65277456726032
H        -2.72122168589887   -1.90321008789582    2.26941736490596
C         2.16868288345837   -2.23988474389498    6.14253703985247
C        -0.36306453363926   -3.22282893435858    6.82214350103248
C         1.97009033055569   -2.85473295297705    7.34889090864631
H         3.14648664443584   -1.86708520002961    5.88043233409492
C         0.69584920557808   -3.34968719715074    7.68640803188389
H        -1.34012979132236   -3.61007875056568    7.06202328510643
H         2.78294891252194   -2.97595512322672    8.04738324928043
C         0.47803285607016   -4.10785253851273    8.95693993492250
F        -0.69119311823143   -3.80934543041638    9.56009670857409
F         0.43798815370844   -5.44810426633258    8.75579982759450
F         1.43107783049061   -3.91570561991080    9.88666638045778
107
 energy: -165.320565255114 gnorm: 0.032591162641 xtb: 6.4.1 (1a32961)
N        -0.93141398806790   -2.04140765457842   -0.34690636180587
C        -2.20297978532213   -1.62087410072618   -0.46094267161596
C        -3.11636756111611   -2.31003170783942   -1.26605782144486
C        -2.71062466133968   -3.43471326656630   -1.95231872601310
C        -1.39066044184956   -3.85545353488645   -1.82368137304430
C        -0.54778548417039   -3.12234429775491   -1.01452778841811
H         0.48062819603471   -3.41836524846152   -0.86621733839494
H        -1.03324207175482   -4.73588037164397   -2.33060122744900
H        -4.13791543018104   -1.98134120624822   -1.34788827890446
C        -2.56887943930734   -0.45598904390092    0.33972638944076
N        -1.58551479325331    0.10522498608355    1.07398295420003
C        -1.88030762417291    1.14789586200463    1.84218631938879
C        -3.14878712731273    1.68216042052764    1.95177044382997
C        -4.17743155175268    1.10418616993085    1.21558689951127
C        -3.87898189673625    0.03369033632734    0.39877913653203
H        -4.66590095797850   -0.43456554088851   -0.16647150080434
H        -3.33266045550867    2.51772937455186    2.60629749248405
H        -1.05059668587427    1.56367801533753    2.39121310998124
Ir        0.42150000000000   -0.81650000000000    0.91330000000000
H         0.87260000000000   -2.23030000000000    1.54050000000000
B         0.49443159529283    0.44994072881807   -0.74997029846460
O         0.14381756886215   -0.01548742315578   -2.00709175690110
C         0.00328789656440    1.09516498834130   -2.90470160573273
C         0.49345917695027    0.73102889521216   -4.30329006567109
H         1.50638066216774    0.34554428384719   -4.27908467726408
H         0.45417401736183    1.60977327780097   -4.94099605182806
H        -0.15266355864438   -0.03551399947577   -4.72228661595635
C        -1.49832455660038    1.41335109407512   -2.96661798593437
H        -1.70333517643156    2.22008117660888   -3.66294421366796
H        -2.02776646043428    0.52016779672372   -3.29042685678735
H        -1.85666628164965    1.67835435495734   -1.97442969355860
C         0.82258798504355    2.21040046934093   -2.18502977699682
O         0.77028639562501    1.79308798915447   -0.81317104537381
C         2.30035124960950    2.20210053596829   -2.59373202109433
H         2.70444018900297    1.20664255937952   -2.43186214855745
H         2.42792062073693    2.50879708053187   -3.62729417473355
H         2.84365147750355    2.88861101628609   -1.94962919122834
C         0.26457544733425    3.62355591826644   -2.32734687651136
H        -0.73254688947768    3.70102262878929   -1.90802757088963
H         0.91216640760775    4.31087729492931   -1.79032390402001
H         0.24284237585976    3.90672535514686   -3.37584676624098
B         1.56910724686471    0.63492024250503    1.85737706705033
O         2.92272685397363    0.58590927754337    2.10992905484367
C         3.36089975555284    1.89209375701092    2.51193423551054
C         4.52615320410417    1.78817465898157    3.48959884266865
H         4.27613165589450    1.15309494695280    4.33203836227618
H         5.38088548245282    1.35578653121714    2.97747372817765
H         4.79375294211481    2.77748015501111    3.84761222469635
C         3.80734648350262    2.60078011618450    1.22844417872617
H         4.20197461526240    3.59078752272180    1.43110175627046
H         4.57408171794837    1.99630078733792    0.75190161090389
H         2.96004619116571    2.64971891945082    0.54942884963197
C         2.05212153175417    2.50644320657368    3.09315715381614
O         1.04058950089901    1.79810427956238    2.36135458955122
C         1.89331584852366    4.00843516472397    2.88809437749931
H         1.85335207970416    4.24944968870730    1.83207404104323
H         0.96490370623226    4.33450484370670    3.34797941372547
H         2.72194466572174    4.53284240904036    3.35389219060093
C         1.84867691896483    2.15883345393919    4.57405278140942
H         1.95491469352814    1.08606025785429    4.71307382481766
H         2.55475076544430    2.68964426347030    5.20342282562692
H         0.83748462941679    2.43444212955868    4.86263947870798
B         2.27819999999999   -1.33090000000006    0.17409999999999
O         2.90350391483010   -2.54086672849230    0.41380588546919
C         4.25269325915682   -2.47998249362422   -0.07514308688524
C         5.11855121077186   -2.06090551217671    1.11801388741435
H         4.75904114724756   -1.10418921425402    1.48814558894847
H         4.99309981431699   -2.79713303488858    1.90693663261850
H         6.16739842377024   -2.00226971921861    0.84785622127673
C         4.70145430388402   -3.84368399606193   -0.58941796935074
H         4.73737937945243   -4.54006090045661    0.24281097129711
H         5.69294528945106   -3.75972128265059   -1.02352606756572
H         4.01364735663891   -4.23354940568023   -1.33096917633713
C         4.15629952511742   -1.36093820894282   -1.15554461268330
O         3.04939262010669   -0.57907361126257   -0.67981499456093
C         5.40062129327558   -0.49180792709573   -1.30267164301790
H         6.24835992711367   -1.10873989482718   -1.58489849163456
H         5.22839090275283    0.24836165631888   -2.07850165350806
H         5.62019038575681    0.02822156177468   -0.37780027028443
C         3.74812293182592   -1.90702311680794   -2.53123010273162
H         2.85808133384063   -2.52153607596615   -2.42852928121776
H         3.50036052592788   -1.06837413330644   -3.17668382028054
H         4.55173978870199   -2.47752417549127   -2.98448235412107
H        -3.40505314505826   -3.98153534675049   -2.57046371147845
H        -5.18686680893814    1.47847180470333    1.28516194995082
C         0.23590000000001   -1.68140000000005    2.96030000000001
C        -0.96047108927204   -2.32682894860767    3.42796437103517
C         1.26335975490132   -1.62336728206969    3.89096747096009
N        -1.14998733250290   -2.69735625291355    4.66871838524937
C        -2.09681275942572   -2.74086001044777    2.54432833155258
C         1.12079906764076   -2.11738089072151    5.20611946808138
H         2.23241865532649   -1.25651446233510    3.58606113795941
C        -0.15380414983312   -2.63069591633586    5.56479451359633
H        -2.71351342706735   -3.44297556389549    3.10030800237944
H        -1.72244012400038   -3.21947744101358    1.64542976460804
H        -2.71394891119899   -1.89270228056893    2.26638877998566
C         2.17290701953272   -2.22557757434134    6.14169931930081
C        -0.35313279339166   -3.21977244052138    6.82585043168290
C         1.97922612486234   -2.83707573606258    7.34952757534164
H         3.14818417209569   -1.84808215390843    5.87654454109468
C         0.70654058055254   -3.33732962695844    7.68969440532340
H        -1.32859812259734   -3.60996649280856    7.06771842852611
H         2.79246583214745   -2.95245765116252    8.04857093261617
C         0.49670874058174   -4.09087334793423    8.96419160941033
F        -0.67123099961979   -3.79594140281226    9.56988179887486
F         0.46214863062089   -5.43234803166262    8.76747664429804
F         1.45184271902730   -3.89158243750338    9.88873445459639
107
 energy: -165.321613174025 gnorm: 0.032543695820 xtb: 6.4.1 (1a32961)
N        -0.91899586201337   -2.03415382944945   -0.37280788889715
C        -2.18819116218868   -1.60318917364234   -0.49232126023966
C        -3.10528614039205   -2.28547698889003   -1.30037008368519
C        -2.71042230858233   -3.41915183346269   -1.97769867070512
C        -1.39016968988098   -3.84446086597403   -1.85306807841280
C        -0.54066214732972   -3.11209160771983   -1.04893005506312
H         0.48951568619809   -3.40965278080158   -0.91200384574211
H        -1.03951525522429   -4.72881518430894   -2.35774917992125
H        -4.12289243056688   -1.94502624615059   -1.38673488336753
C        -2.55120487862527   -0.44023176796275    0.30861010648202
N        -1.57123020864274    0.11043832130593    1.05896617430144
C        -1.86977869990967    1.15297444966319    1.82793253275578
C        -3.13953125329034    1.68431653546729    1.93723072269275
C        -4.16546077176264    1.11302794686836    1.18894846113030