      -----------------------------------------------------------      
     |                   =====================                   |     
     |                           x T B                           |     
     |                   =====================                   |     
     |                         S. Grimme                         |     
     |          Mulliken Center for Theoretical Chemistry        |     
     |                    University of Bonn                     |     
      -----------------------------------------------------------      

   * xtb version 6.4.0 (f63f532) compiled by 'knkr256@seskscpg008.prim.scp' on 2021-04-09

   xtb is free software: you can redistribute it and/or modify it under
   the terms of the GNU Lesser General Public License as published by
   the Free Software Foundation, either version 3 of the License, or
   (at your option) any later version.
   
   xtb is distributed in the hope that it will be useful,
   but WITHOUT ANY WARRANTY; without even the implied warranty of
   MERCHANTABILITY or FITNESS FOR A PARTICULAR PURPOSE.  See the
   GNU Lesser General Public License for more details.
   
   Cite this work as:
   * C. Bannwarth, E. Caldeweyher, S. Ehlert, A. Hansen, P. Pracht,
     J. Seibert, S. Spicher, S. Grimme, WIREs Comput. Mol. Sci., 2020, 11,
     e01493. DOI: 10.1002/wcms.1493
   
   for GFN2-xTB:
   * C. Bannwarth, S. Ehlert and S. Grimme., J. Chem. Theory Comput., 2019,
     15, 1652-1671. DOI: 10.1021/acs.jctc.8b01176
   for GFN1-xTB:
   * S. Grimme, C. Bannwarth, P. Shushkov, J. Chem. Theory Comput., 2017,
     13, 1989-2009. DOI: 10.1021/acs.jctc.7b00118
   for GFN0-xTB:
   * P. Pracht, E. Caldeweyher, S. Ehlert, S. Grimme, ChemRxiv, 2019, preprint.
     DOI: 10.26434/chemrxiv.8326202.v1
   for GFN-FF:
   * S. Spicher and S. Grimme, Angew. Chem. Int. Ed., 2020, 59, 15665-15673.
     DOI: 10.1002/anie.202004239
   
   for DFT-D4:
   * E. Caldeweyher, C. Bannwarth and S. Grimme, J. Chem. Phys., 2017,
     147, 034112. DOI: 10.1063/1.4993215
   * E. Caldeweyher, S. Ehlert, A. Hansen, H. Neugebauer, S. Spicher,
     C. Bannwarth and S. Grimme, J. Chem. Phys., 2019, 150, 154122.
     DOI: 10.1063/1.5090222
   * E. Caldeweyher, J.-M. Mewes, S. Ehlert and S. Grimme, Phys. Chem. Chem. Phys.
     2020, 22, 8499-8512. DOI: 10.1039/D0CP00502A
   
   for sTDA-xTB:
   * S. Grimme and C. Bannwarth, J. Chem. Phys., 2016, 145, 054103.
     DOI: 10.1063/1.4959605
   
   in the mass-spec context:
   * V. Asgeirsson, C. Bauer and S. Grimme, Chem. Sci., 2017, 8, 4879.
     DOI: 10.1039/c7sc00601b
   * J. Koopman and S. Grimme, ACS Omega 2019, 4, 12, 15120-15133.
     DOI: 10.1021/acsomega.9b02011
   
   for metadynamics refer to:
   * S. Grimme, J. Chem. Theory Comput., 2019, 155, 2847-2862
     DOI: 10.1021/acs.jctc.9b00143
   
   for SPH calculations refer to:
   * S. Spicher and S. Grimme, J. Chem. Theory Comput., 2021, 17, 1701-1714
     DOI: 10.1021/acs.jctc.0c01306
   
   with help from (in alphabetical order)
   P. Atkinson, C. Bannwarth, F. Bohle, G. Brandenburg, E. Caldeweyher
   M. Checinski, S. Dohm, S. Ehlert, S. Ehrlich, I. Gerasimov, J. Koopman
   C. Lavinge, S. Lehtola, F. März, M. Müller, F. Musil, H. Neugebauer
   J. Pisarek, P. Pracht, J. Seibert, P. Shushkov, S. Spicher, M. Stahn
   T. Strunk, J. Stückrath, T. Rose, and J. Unsleber
   
 * started run on 2021/10/08 at 07:12:25.081     

           -------------------------------------------------
          |                Calculation Setup                |
           -------------------------------------------------

          program call               : xtb xtbopt.xyz --sp --alpb thf -P 6
          hostname                   : seskscpg010.prim.scp
          coordinate file            : xtbopt.xyz
          omp threads                :                     6
          number of atoms            :                   107
          number of electrons        :                   280
          charge                     :                     0
          spin                       :                   0.0
          first test random number   :      0.77923585112907

   ID    Z sym.   atoms
    1    7 N      1, 11, 97
    2    6 C      2-6, 10, 12-15, 23, 24, 28, 32, 34, 38, 44, 45, 49, 53, 55,
                  59, 65, 66, 70, 74, 76, 80, 86-89, 91, 93, 96, 100-102, 104
    3    1 H      7-9, 16-18, 20, 25-27, 29-31, 35-37, 39-41, 46-48, 50-52,
                  56-58, 60-62, 67-69, 71-73, 77-79, 81-85, 90, 92, 94, 95,
                  98, 99, 103, 105-107
    4   77 Ir     19
    5    5 B      21, 42, 63
    6    8 O      22, 33, 43, 54, 64, 75

molecular fragmentation (1/2 indicates fragments):
111111111111111111111111111111111111111111111111111111111111111111111111
11111111111112222222222222222222222
# atoms in fragment 1/2:    85    22
 fragment masses (1/2) :      730.32      156.20
CMA distance (Bohr)    :  12.190
constraining FC (au)   :  0.0500

           -------------------------------------------------
          |                 G F N 2 - x T B                 |
           -------------------------------------------------

        Reference                      10.1021/acs.jctc.8b01176
      * Hamiltonian:
        H0-scaling (s, p, d)           1.850000    2.230000    2.230000
        zeta-weighting                 0.500000
      * Dispersion:
        s8                             2.700000
        a1                             0.520000
        a2                             5.000000
        s9                             5.000000
      * Repulsion:
        kExp                           1.500000    1.000000
        rExp                           1.000000
      * Coulomb:
        alpha                          2.000000
        third order                    shell-resolved
        anisotropic                    true
        a3                             3.000000
        a5                             4.000000
        cn-shift                       1.200000
        cn-exp                         4.000000
        max-rad                        5.000000

      * Solvation model:               ALPB
        Solvent                        thf
        Parameter file                 internal GFN2-xTB/ALPB
        Dielectric constant                7.6000E+00
        Reference state                gsolv [1 M gas/solution]
        Free energy shift                  5.3248E-03 Eh       3.3414E+00 kcal/mol
        Temperature                        2.9815E+02 K
        Density                            8.8300E-01 kg/L
        Solvent mass                       7.2106E+01 g/mol
        Interaction kernel             P16
        Born radius scaling (c1)           1.7311E+00
        Born radii integrator          GBOBC
        Born offset                        0.0000E+00 a0       0.0000E+00 AA
        H-bond correction              true
        Ion screening                  false
        Surface tension                    1.0000E-05 Eh       1.5569E+01 dyn/cm
        Grid points                               230 per atom
q/qsh data taken from xtbrestart
CAMM data taken from xtbrestart

          ...................................................
          :                      SETUP                      :
          :.................................................:
          :  # basis functions                 269          :
          :  # atomic orbitals                 268          :
          :  # shells                          160          :
          :  # electrons                       280          :
          :  max. iterations                   250          :
          :  Hamiltonian                  GFN2-xTB          :
          :  restarted?                       true          :
          :  GBSA solvation                   true          :
          :  PC potential                    false          :
          :  electronic temp.          300.0000000     K    :
          :  accuracy                    1.0000000          :
          :  -> integral cutoff          0.2500000E+02      :
          :  -> integral neglect         0.1000000E-07      :
          :  -> SCF convergence          0.1000000E-05 Eh   :
          :  -> wf. convergence          0.1000000E-03 e    :
          :  Broyden damping             0.4000000          :
          ...................................................

 iter      E             dE          RMSdq      gap      omega  full diag
   1   -154.6786865 -0.154679E+03  0.413E-05    0.90       0.0  T
   2   -154.6786865  0.948120E-09  0.103E-04    0.90      94.2  T
   3   -154.6786865 -0.109858E-08  0.147E-05    0.90     658.6  T

   *** convergence criteria satisfied after 3 iterations ***

         #    Occupation            Energy/Eh            Energy/eV
      -------------------------------------------------------------
         1        2.0000           -0.6739909             -18.3402
       ...           ...                  ...                  ...
       134        2.0000           -0.3565246              -9.7015
       135        2.0000           -0.3456630              -9.4060
       136        2.0000           -0.3314649              -9.0196
       137        2.0000           -0.3220440              -8.7633
       138        2.0000           -0.3188978              -8.6777
       139        2.0000           -0.3108910              -8.4598
       140        2.0000           -0.3083586              -8.3909 (HOMO)
       141                         -0.2751331              -7.4868 (LUMO)
       142                         -0.2473129              -6.7297
       143                         -0.2446422              -6.6571
       144                         -0.2157831              -5.8718
       145                         -0.2088039              -5.6818
       ...                                ...                  ...
       268                          3.7351813             101.6395
      -------------------------------------------------------------
                  HL-Gap            0.0332255 Eh            0.9041 eV
             Fermi-level           -0.2917139 Eh           -7.9379 eV

 SCC (total)                   0 d,  0 h,  0 min,  0.114 sec
 SCC setup                      ...        0 min,  0.003 sec (  2.698%)
 Dispersion                     ...        0 min,  0.003 sec (  2.276%)
 classical contributions        ...        0 min,  0.000 sec (  0.144%)
 integral evaluation            ...        0 min,  0.031 sec ( 27.547%)
 iterations                     ...        0 min,  0.033 sec ( 29.266%)
 molecular gradient             ...        0 min,  0.043 sec ( 37.478%)
 printout                       ...        0 min,  0.001 sec (  0.540%)

         :::::::::::::::::::::::::::::::::::::::::::::::::::::
         ::                     SUMMARY                     ::
         :::::::::::::::::::::::::::::::::::::::::::::::::::::
         :: total energy            -152.622404198828 Eh    ::
         :: total w/o Gsasa/hb      -152.577812080529 Eh    ::
         :: gradient norm              0.033396325592 Eh/a0 ::
         :: HOMO-LUMO gap              0.904112744745 eV    ::
         ::.................................................::
         :: SCC energy              -154.678686542760 Eh    ::
         :: -> isotropic ES            0.236493061879 Eh    ::
         :: -> anisotropic ES          0.017233797062 Eh    ::
         :: -> anisotropic XC          0.055610795491 Eh    ::
         :: -> dispersion             -0.145564524829 Eh    ::
         :: -> Gsolv                  -0.053783328344 Eh    ::
         ::    -> Gelec               -0.009191210045 Eh    ::
         ::    -> Gsasa               -0.047443784746 Eh    ::
         ::    -> Ghb                 -0.002473148997 Eh    ::
         ::    -> Gshift               0.005324815444 Eh    ::
         :: repulsion energy           2.047814274678 Eh    ::
         :: add. restraining           0.000000000000 Eh    ::
         :: total charge               0.000000000001 e     ::
         :::::::::::::::::::::::::::::::::::::::::::::::::::::

           -------------------------------------------------
          |                Property Printout                |
           -------------------------------------------------

    * Orbital Energies and Occupations

         #    Occupation            Energy/Eh            Energy/eV
      -------------------------------------------------------------
         1        2.0000           -0.6739909             -18.3402
       ...           ...                  ...                  ...
       128        2.0000           -0.3879913             -10.5578
       129        2.0000           -0.3859562             -10.5024
       130        2.0000           -0.3830039             -10.4221
       131        2.0000           -0.3822616             -10.4019
       132        2.0000           -0.3802687             -10.3476
       133        2.0000           -0.3712917             -10.1034
       134        2.0000           -0.3565246              -9.7015
       135        2.0000           -0.3456630              -9.4060
       136        2.0000           -0.3314649              -9.0196
       137        2.0000           -0.3220440              -8.7633
       138        2.0000           -0.3188978              -8.6777
       139        2.0000           -0.3108910              -8.4598
       140        2.0000           -0.3083586              -8.3909 (HOMO)
       141                         -0.2751331              -7.4868 (LUMO)
       142                         -0.2473129              -6.7297
       143                         -0.2446422              -6.6571
       144                         -0.2157831              -5.8718
       145                         -0.2088039              -5.6818
       146                         -0.2034678              -5.5366
       147                         -0.1847861              -5.0283
       148                         -0.1709503              -4.6518
       149                         -0.1483424              -4.0366
       150                         -0.1273807              -3.4662
       151                         -0.1256850              -3.4201
       ...                                ...                  ...
       268                          3.7351813             101.6395
      -------------------------------------------------------------
                  HL-Gap            0.0332255 Eh            0.9041 eV
             Fermi-level           -0.2917139 Eh           -7.9379 eV

     #   Z          covCN         q      C6AA      α(0)
     1   7 N        2.556    -0.122    23.674     7.226
     2   6 C        2.955     0.076    26.303     8.412
     3   6 C        2.918    -0.043    29.065     8.841
     4   6 C        2.923    -0.023    28.575     8.766
     5   6 C        2.915    -0.044    29.093     8.845
     6   6 C        2.892     0.048    26.928     8.508
     7   1 H        0.926     0.052     2.294     2.368
     8   1 H        0.926     0.054     2.265     2.353
     9   1 H        0.926     0.046     2.374     2.410
    10   6 C        2.953     0.072    26.397     8.427
    11   7 N        2.560    -0.127    23.774     7.241
    12   6 C        2.889     0.042    27.047     8.527
    13   6 C        2.915    -0.045    29.122     8.849
    14   6 C        2.922    -0.025    28.631     8.775
    15   6 C        2.918    -0.045    29.128     8.850
    16   1 H        0.926     0.045     2.386     2.416
    17   1 H        0.926     0.050     2.317     2.381
    18   1 H        0.926     0.075     2.027     2.227
    19  77 Ir       5.955    -0.155   388.043    36.428
    20   1 H        0.977     0.087     1.907     2.158
    21   5 B        2.627     0.402    16.048     6.770
    22   8 O        1.638    -0.410    21.053     6.194
    23   6 C        3.835     0.130    18.446     6.110
    24   6 C        3.755    -0.121    22.871     6.819
    25   1 H        0.925     0.053     2.284     2.363
    26   1 H        0.925     0.044     2.392     2.419
    27   1 H        0.925     0.051     2.313     2.378
    28   6 C        3.754    -0.109    22.639     6.784
    29   1 H        0.925     0.047     2.359     2.402
    30   1 H        0.925     0.041     2.429     2.437
    31   1 H        0.925     0.028     2.617     2.530
    32   6 C        3.840     0.131    18.435     6.108
    33   8 O        1.637    -0.404    20.933     6.176
    34   6 C        3.755    -0.120    22.854     6.817
    35   1 H        0.925     0.050     2.319     2.381
    36   1 H        0.925     0.045     2.378     2.412
    37   1 H        0.925     0.049     2.334     2.389
    38   6 C        3.754    -0.119    22.842     6.815
    39   1 H        0.925     0.047     2.359     2.402
    40   1 H        0.925     0.052     2.292     2.367
    41   1 H        0.925     0.045     2.389     2.417
    42   5 B        2.626     0.403    16.035     6.769
    43   8 O        1.637    -0.384    20.555     6.120
    44   6 C        3.837     0.129    18.471     6.114
    45   6 C        3.755    -0.126    22.971     6.834
    46   1 H        0.925     0.055     2.258     2.350
    47   1 H        0.925     0.056     2.247     2.344
    48   1 H        0.925     0.049     2.333     2.388
    49   6 C        3.755    -0.121    22.880     6.820
    50   1 H        0.925     0.048     2.346     2.395
    51   1 H        0.925     0.045     2.381     2.413
    52   1 H        0.925     0.052     2.290     2.367
    53   6 C        3.833     0.128    18.487     6.117
    54   8 O        1.638    -0.381    20.499     6.111
    55   6 C        3.755    -0.124    22.929     6.828
    56   1 H        0.925     0.054     2.276     2.359
    57   1 H        0.925     0.054     2.271     2.357
    58   1 H        0.925     0.048     2.351     2.398
    59   6 C        3.755    -0.122    22.899     6.823
    60   1 H        0.925     0.044     2.393     2.419
    61   1 H        0.925     0.052     2.298     2.371
    62   1 H        0.925     0.050     2.320     2.382
    63   5 B        2.626     0.401    16.068     6.776
    64   8 O        1.637    -0.378    20.445     6.103
    65   6 C        3.833     0.125    18.527     6.124
    66   6 C        3.755    -0.131    23.069     6.848
    67   1 H        0.925     0.059     2.210     2.325
    68   1 H        0.925     0.054     2.266     2.354
    69   1 H        0.925     0.050     2.325     2.385
    70   6 C        3.755    -0.129    23.033     6.843
    71   1 H        0.925     0.061     2.191     2.315
    72   1 H        0.925     0.050     2.318     2.381
    73   1 H        0.925     0.052     2.297     2.370
    74   6 C        3.828     0.127    18.499     6.120
    75   8 O        1.637    -0.381    20.503     6.112
    76   6 C        3.755    -0.124    22.929     6.828
    77   1 H        0.925     0.050     2.315     2.380
    78   1 H        0.925     0.053     2.286     2.364
    79   1 H        0.925     0.055     2.262     2.352
    80   6 C        3.755    -0.122    22.889     6.822
    81   1 H        0.925     0.040     2.443     2.444
    82   1 H        0.925     0.049     2.331     2.387
    83   1 H        0.925     0.054     2.269     2.356
    84   1 H        0.926     0.052     2.300     2.372
    85   1 H        0.926     0.048     2.341     2.393
    86   6 C        2.828    -0.021    28.510     8.750
    87   6 C        2.925    -0.032    28.792     8.800
    88   6 C        2.921    -0.037    28.919     8.819
    89   6 C        2.921    -0.046    29.135     8.852
    90   1 H        0.925     0.027     2.634     2.538
    91   6 C        2.922    -0.039    28.967     8.826
    92   1 H        0.926     0.042     2.420     2.433
    93   6 C        2.967    -0.004    28.130     8.700
    94   1 H        0.925     0.028     2.614     2.528
    95   1 H        0.925     0.036     2.509     2.477
    96   6 C        3.746    -0.015    20.904     6.522
    97   7 N        2.860     0.000    21.258     6.848
    98   1 H        0.924     0.065     2.139     2.287
    99   1 H        0.924     0.058     2.224     2.332
   100   6 C        3.064    -0.029    28.652     8.778
   101   6 C        3.064    -0.029    28.650     8.777
   102   6 C        3.060    -0.074    29.788     8.950
   103   1 H        0.926     0.022     2.695     2.567
   104   6 C        3.059    -0.075    29.807     8.953
   105   1 H        0.926     0.024     2.671     2.556
   106   1 H        0.926     0.011     2.874     2.651
   107   1 H        0.926     0.012     2.853     2.641

 Mol. C6AA /au·bohr⁶  :     123418.660855
 Mol. C8AA /au·bohr⁸  :    3263555.800577
 Mol. α(0) /au        :        546.914430


Wiberg/Mayer (AO) data.
largest (>0.10) Wiberg bond orders for each atom

 ---------------------------------------------------------------------------
     #   Z sym  total        # sym  WBO       # sym  WBO       # sym  WBO
 ---------------------------------------------------------------------------
     1   7 N    3.404 --     6 C    1.385     2 C    1.307    19 Ir   0.450
     2   6 C    3.978 --     3 C    1.346     1 N    1.307    10 C    1.095
     3   6 C    3.988 --     4 C    1.486     2 C    1.346     9 H    0.962
                             6 C    0.106
     4   6 C    3.985 --     3 C    1.486     5 C    1.378    84 H    0.969
     5   6 C    3.979 --     6 C    1.464     4 C    1.378     8 H    0.969
     6   6 C    3.978 --     5 C    1.464     1 N    1.385     7 H    0.957
                             3 C    0.106
     7   1 H    0.997 --     6 C    0.957
     8   1 H    0.996 --     5 C    0.969
     9   1 H    0.997 --     3 C    0.962
    10   6 C    3.979 --    15 C    1.352    11 N    1.299     2 C    1.095
    11   7 N    3.407 --    12 C    1.384    10 C    1.299    19 Ir   0.439
    12   6 C    3.973 --    13 C    1.460    11 N    1.384    18 H    0.949
                            15 C    0.105
    13   6 C    3.981 --    12 C    1.460    14 C    1.382    17 H    0.969
    14   6 C    3.982 --    15 C    1.480    13 C    1.382    85 H    0.969
    15   6 C    3.989 --    14 C    1.480    10 C    1.352    16 H    0.962
                            12 C    0.105
    16   1 H    0.997 --    15 C    0.962
    17   1 H    0.997 --    13 C    0.969
    18   1 H    0.994 --    12 C    0.949
    19  77 Ir   5.202 --    63 B    0.871    42 B    0.858    21 B    0.714
                            86 C    0.598    20 H    0.537     1 N    0.450
                            11 N    0.439
    20   1 H    0.990 --    19 Ir   0.537    86 C    0.343
    21   5 B    3.268 --    33 O    1.110    22 O    1.090    19 Ir   0.714
    22   8 O    2.189 --    21 B    1.090    23 C    0.943
    23   6 C    3.944 --    24 C    0.996    28 C    0.990    22 O    0.943
                            32 C    0.941
    24   6 C    3.994 --    23 C    0.996    26 H    0.984    27 H    0.983
                            25 H    0.983
    25   1 H    0.997 --    24 C    0.983
    26   1 H    0.997 --    24 C    0.984
    27   1 H    0.997 --    24 C    0.983
    28   6 C    3.997 --    23 C    0.990    31 H    0.985    29 H    0.984
                            30 H    0.984
    29   1 H    0.997 --    28 C    0.984
    30   1 H    0.998 --    28 C    0.984
    31   1 H    0.999 --    28 C    0.985
    32   6 C    3.941 --    38 C    0.997    34 C    0.991    23 C    0.941
                            33 O    0.940
    33   8 O    2.200 --    21 B    1.110    32 C    0.940
    34   6 C    3.994 --    32 C    0.991    36 H    0.984    37 H    0.982
                            35 H    0.982
    35   1 H    0.997 --    34 C    0.982
    36   1 H    0.997 --    34 C    0.984
    37   1 H    0.997 --    34 C    0.982
    38   6 C    3.994 --    32 C    0.997    41 H    0.984    39 H    0.983
                            40 H    0.983
    39   1 H    0.998 --    38 C    0.983
    40   1 H    0.997 --    38 C    0.983
    41   1 H    0.997 --    38 C    0.984
    42   5 B    3.334 --    43 O    1.113    54 O    1.110    19 Ir   0.858
    43   8 O    2.223 --    42 B    1.113    44 C    0.937
    44   6 C    3.937 --    45 C    0.997    49 C    0.991    53 C    0.939
                            43 O    0.937
    45   6 C    3.993 --    44 C    0.997    48 H    0.983    46 H    0.982
                            47 H    0.982
    46   1 H    0.997 --    45 C    0.982
    47   1 H    0.997 --    45 C    0.982
    48   1 H    0.996 --    45 C    0.983
    49   6 C    3.994 --    44 C    0.991    50 H    0.983    51 H    0.982
                            52 H    0.979
    50   1 H    0.997 --    49 C    0.983
    51   1 H    0.998 --    49 C    0.982
    52   1 H    0.997 --    49 C    0.979
    53   6 C    3.938 --    55 C    0.996    59 C    0.992    44 C    0.939
                            54 O    0.936
    54   8 O    2.228 --    42 B    1.110    53 C    0.936
    55   6 C    3.993 --    53 C    0.996    58 H    0.983    57 H    0.983
                            56 H    0.982
    56   1 H    0.997 --    55 C    0.982
    57   1 H    0.997 --    55 C    0.983
    58   1 H    0.996 --    55 C    0.983
    59   6 C    3.994 --    53 C    0.992    61 H    0.983    62 H    0.983
                            60 H    0.982
    60   1 H    0.998 --    59 C    0.982
    61   1 H    0.996 --    59 C    0.983
    62   1 H    0.997 --    59 C    0.983
    63   5 B    3.358 --    75 O    1.118    64 O    1.111    19 Ir   0.871
    64   8 O    2.227 --    63 B    1.111    65 C    0.938
    65   6 C    3.937 --    70 C    0.997    66 C    0.991    64 O    0.938
                            74 C    0.938
    66   6 C    3.992 --    65 C    0.991    69 H    0.983    68 H    0.982
                            67 H    0.979
    67   1 H    0.996 --    66 C    0.979
    68   1 H    0.997 --    66 C    0.982
    69   1 H    0.997 --    66 C    0.983
    70   6 C    3.992 --    65 C    0.997    72 H    0.983    73 H    0.982
                            71 H    0.982
    71   1 H    0.996 --    70 C    0.982
    72   1 H    0.996 --    70 C    0.983
    73   1 H    0.997 --    70 C    0.982
    74   6 C    3.935 --    76 C    0.996    80 C    0.991    65 C    0.938
                            75 O    0.936
    75   8 O    2.233 --    63 B    1.118    74 C    0.936
    76   6 C    3.993 --    74 C    0.996    77 H    0.983    78 H    0.982
                            79 H    0.981
    77   1 H    0.996 --    76 C    0.983
    78   1 H    0.997 --    76 C    0.982
    79   1 H    0.997 --    76 C    0.981
    80   6 C    3.995 --    74 C    0.991    81 H    0.984    83 H    0.983
                            82 H    0.983
    81   1 H    0.998 --    80 C    0.984
    82   1 H    0.997 --    80 C    0.983
    83   1 H    0.996 --    80 C    0.983
    84   1 H    0.996 --     4 C    0.969
    85   1 H    0.997 --    14 C    0.969
    86   6 C    3.951 --    87 C    1.387    88 C    1.374    19 Ir   0.598
                            20 H    0.343
    87   6 C    3.990 --    89 C    1.437    86 C    1.387    90 H    0.963
                            91 C    0.104
    88   6 C    3.989 --    91 C    1.457    86 C    1.374    92 H    0.961
                            89 C    0.104
    89   6 C    3.987 --    87 C    1.437    93 C    1.414    94 H    0.967
                            88 C    0.104
    90   1 H    0.999 --    87 C    0.963
    91   6 C    3.988 --    88 C    1.457    93 C    1.398    95 H    0.967
                            87 C    0.104
    92   1 H    0.997 --    88 C    0.961
    93   6 C    3.982 --    89 C    1.414    91 C    1.398    96 C    0.990
    94   1 H    0.999 --    89 C    0.967
    95   1 H    0.997 --    91 C    0.967
    96   6 C    3.971 --    93 C    0.990    97 N    0.988    99 H    0.966
                            98 H    0.959
    97   7 N    3.640 --   100 C    1.231   101 C    1.231    96 C    0.988
    98   1 H    0.995 --    96 C    0.959
    99   1 H    0.996 --    96 C    0.966
   100   6 C    3.944 --   102 C    1.546    97 N    1.231   103 H    0.971
                           101 C    0.130
   101   6 C    3.943 --   104 C    1.543    97 N    1.231   105 H    0.970
                           100 C    0.130
   102   6 C    3.978 --   100 C    1.546   104 C    1.334   106 H    0.976
   103   1 H    0.999 --   100 C    0.971
   104   6 C    3.977 --   101 C    1.543   102 C    1.334   107 H    0.976
   105   1 H    0.999 --   101 C    0.970
   106   1 H    1.000 --   102 C    0.976
   107   1 H    1.000 --   104 C    0.976
 ---------------------------------------------------------------------------

Topologies differ in total number of bonds
Writing topology from bond orders to xtbtopo.mol

molecular dipole:
                 x           y           z       tot (Debye)
 q only:        0.096      -0.333      -1.563
   full:       -1.084      -0.109      -2.158       6.145
molecular quadrupole (traceless):
                xx          xy          yy          xz          yz          zz
 q only:       21.432       2.165      11.536       1.362      -1.325     -32.967
  q+dip:       26.089       3.256       9.216       2.555       2.575     -35.305
   full:       23.187       4.398      12.010      -0.260      -0.647     -35.198


           -------------------------------------------------
          | TOTAL ENERGY             -152.622404198828 Eh   |
          | GRADIENT NORM               0.033396325592 Eh/α |
          | HOMO-LUMO GAP               0.904112744745 eV   |
           -------------------------------------------------

------------------------------------------------------------------------
 * finished run on 2021/10/08 at 07:12:25.239     
------------------------------------------------------------------------
 total:
 * wall-time:     0 d,  0 h,  0 min,  0.158 sec
 *  cpu-time:     0 d,  0 h,  0 min,  0.926 sec
 * ratio c/w:     5.848 speedup
 SCF:
 * wall-time:     0 d,  0 h,  0 min,  0.115 sec
 *  cpu-time:     0 d,  0 h,  0 min,  0.687 sec
 * ratio c/w:     5.974 speedup

