108
 energy: -152.687349670730 gnorm: 0.000775144897 xtb: 6.4.0 (f63f532)
N        -0.95666191960139   -2.01043123582388   -0.36742211369803
C        -2.21112854266009   -1.53704915513993   -0.48344703062373
C        -3.10197295196942   -2.08250182095222   -1.41719829352013
C        -2.69135343409355   -3.11034514311104   -2.23714287654149
C        -1.38830395132739   -3.58475639930314   -2.10968532217866
C        -0.57084114210820   -3.00205030992158   -1.16377775366527
H         0.44707235740209   -3.33885644592896   -1.02722713823092
H        -1.02243028343491   -4.38488834801892   -2.73205746469669
H        -4.10500855426528   -1.69935782037613   -1.50909753506197
C        -2.56538766061728   -0.42349814549992    0.38768648551309
N        -1.58389009871109    0.06108716336300    1.17789755214668
C        -1.85513636436863    1.09429895531256    1.97305562508078
C        -3.09169855940335    1.70103064107483    2.03859407155700
C        -4.11725628378476    1.20924775293741    1.23457173373760
C        -3.84641033428899    0.14309479406647    0.40513454737564
H        -4.62779363343050   -0.25172977381618   -0.22269406009321
H        -3.25762794453238    2.52804086674076    2.70933589418442
H        -1.03018955472377    1.43788698028162    2.57938706863284
Ir        0.42150000000022   -0.81649999999966    0.91330000000133
H         0.87259999999970   -2.23029999999986    1.54050000000047
B         0.27735791999131    0.64980895857104   -0.56985677525588
O        -0.36106390169842    0.37130877567424   -1.76474675809094
C        -0.60667344843111    1.58674736915469   -2.48253375993913
C        -0.37328476119189    1.36532768277860   -3.97435334692823
H         0.59656540331914    0.91186235413213   -4.14934466804836
H        -0.43551225873814    2.31215755991721   -4.50486281476157
H        -1.13724045009222    0.69494656388005   -4.36127864871788
C        -2.07910239940881    1.95755084860766   -2.25224921292588
H        -2.35453166858979    2.84013636420761   -2.82206686301351
H        -2.70213277179114    1.12251075535234   -2.56742817089198
H        -2.26184765502068    2.13447784957928   -1.19399293191906
C         0.37941672917760    2.58745742076446   -1.79872284091803
O         0.57236141728027    1.99437642426866   -0.50720432836266
C         1.75015974439304    2.61372993387836   -2.48582235877236
H         2.14289947243762    1.60095327660969   -2.54160420909900
H         1.68764384322177    3.05335310068981   -3.47718685582260
H         2.43394295656543    3.20189357685747   -1.87878019868828
C        -0.14515564931173    4.01381871980208   -1.64686116962644
H        -1.02268833128952    4.04755416697254   -1.00795723503716
H         0.62699666202099    4.63200027842055   -1.19471015869705
H        -0.39289786926026    4.42334864238274   -2.62292491549668
B         1.59076374666071    0.68026491101616    1.80160482375924
O         2.82358861204505    1.14929544398012    1.44427277961719
C         3.16682296149271    2.33195333945653    2.18136771244270
C         4.55124356754340    2.13974704093920    2.80624967725162
H         4.59280191213480    1.22392006303328    3.38686505684768
H         5.28826810994128    2.06385450520634    2.01107302036201
H         4.80384454156596    2.98752529228078    3.43556987399932
C         3.23507372382934    3.48070671237162    1.16919184988236
H         3.44587221313514    4.42660782151549    1.65879875980555
H         4.02995298719031    3.26610484055000    0.45854661880124
H         2.30060180357244    3.53802884729494    0.61953531881671
C         1.99275434973439    2.47075857523105    3.22373167421549
O         1.09145610933364    1.41677215129464    2.85383315151006
C         1.22002767024998    3.79085880799530    3.13973145619687
H         0.77791741626297    3.91151688888013    2.15553570721626
H         0.41787237573428    3.77282027063723    3.87431558280812
H         1.87146828909859    4.63196395470308    3.35686869312602
C         2.41068120145457    2.24525513197049    4.68089561653647
H         2.91761238657658    1.29387368084611    4.80080014373020
H         3.06033581794817    3.04606991575218    5.02009880925752
H         1.51642780328999    2.23185739810551    5.29998850907122
B         2.27819999999043   -1.33090000000078    0.17409999999433
O         3.24509919862152   -2.13273430430211    0.72873206195224
C         4.44345225224060   -2.07941983064404   -0.05851052255572
C         5.38797294422101   -1.10241840770105    0.64713432553008
H         4.89436618226429   -0.13971514030828    0.74378546013652
H         5.58321629295188   -1.47588348077090    1.64923772477636
H         6.32621999627538   -1.00100601654365    0.11112403813596
C         5.08468919708931   -3.46469342402198   -0.10464086616848
H         5.40582619705787   -3.73204425545199    0.89830061173349
H         5.94952627534634   -3.45180746590882   -0.76194866644282
H         4.38074587557425   -4.21677419611455   -0.44565131031001
C         3.92472336415557   -1.53721567880178   -1.43563479906400
O         2.67117940989422   -0.93124242246645   -1.08544773415707
C         4.82059644567879   -0.48936608676287   -2.09333739676797
H         5.81490938970969   -0.89356252983479   -2.26098564265287
H         4.39056841910336   -0.20499365541373   -3.05081016868615
H         4.88334238357758    0.39777443461969   -1.47251413227161
C         3.62542771560025   -2.65016493139597   -2.44944326085526
H         2.97627444221838   -3.39984738703279   -2.00514316630398
H         3.10465311721373   -2.21524389833647   -3.29923535030687
H         4.54204947432056   -3.11765442257969   -2.79576662644158
H        -3.36566387785878   -3.53441695058468   -2.96573853296640
H        -5.10233266124186    1.64974519780044    1.26125618687508
C         0.23590000000550   -1.68140000001791    2.96030000000073
C        -1.06824187932357   -2.04884013781977    3.30248161947123
C         1.15221804502955   -1.65097706773168    4.00534101327088
C        -1.47013556508237   -2.27918150798896    4.61102059286231
H        -1.80297554719021   -2.18007526027607    2.51942202715508
Br        3.01516379346229   -1.39620762846630    3.69681542735715
C         0.78403315997779   -1.86736262468520    5.32421033755716
C        -0.52751056758574   -2.17119449088062    5.62781972905243
C        -2.88770537379724   -2.65877579676758    4.93493212901636
H         1.53201160749835   -1.82239532902794    6.10096036461560
H        -0.80861075304183   -2.35784399241985    6.65322775029555
C        -3.61188765148666   -1.57166357864192    5.74579633096123
H        -2.88280009471498   -3.58450639904851    5.51669074038452
H        -3.44163773219267   -2.84380071508283    4.01176510949193
C        -3.73289342761630   -0.28804354702898    4.92951706875561
C        -4.98886320107120   -2.06578192645562    6.18424093981538
H        -3.01863757303527   -1.35620464648115    6.64083183122226
H        -4.32663020888895   -0.46145598750413    4.03348510480801
H        -2.74956004641451    0.06276448578392    4.62298794383572
H        -4.21324262384637    0.49321260087608    5.51466602121077
H        -5.60523314895751   -2.29424066215264    5.31679172662737
H        -5.49459816736133   -1.30473100706040    6.77437846399133
H        -4.89983857153765   -2.96559456557159    6.78941431021761
