108
 energy: -154.743868692538 gnorm: 0.001080239968 xtb: 6.4.0 (f63f532)
N        -0.96510000000014   -2.11529999999994   -0.24089999999999
C        -2.24699999999986   -1.69839999999999   -0.36219999999994
C        -3.14040000000001   -2.36819999999997   -1.21200000000001
C        -2.70220000000000   -3.47559999999995   -1.93050000000003
C        -1.37780000000001   -3.89879999999996   -1.78760000000001
C        -0.54290000000000   -3.18669999999994   -0.93509999999999
H         0.49810000000000   -3.45630000000000   -0.78940000000000
H        -0.99570000000001   -4.76030000000002   -2.32769999999999
H        -4.16499999999999   -2.02889999999999   -1.31830000000000
C        -2.62129999999986   -0.50950000000003    0.44099999999999
N        -1.62600000000001    0.07329999999999    1.16020000000002
C        -1.89680000000002    1.15240000000000    1.91689999999999
C        -3.17230000000002    1.70330000000000    1.99649999999999
C        -4.20510000000000    1.11739999999999    1.26269999999999
C        -3.92609999999994    0.00250000000001    0.47820000000002
H        -4.71960000000000   -0.46420000000000   -0.09520000000001
H        -3.34630000000000    2.57510000000001    2.62070000000000
H        -1.04450000000000    1.57419999999999    2.43690000000000
Ir        0.42150000000000   -0.81650000000000    0.91330000000000
H         0.87260000000000   -2.23030000000000    1.54050000000000
B         0.50670000000000    0.41560000000002   -0.81539999999999
O         0.19499999999999   -0.04700000000002   -2.09150000000002
C         0.00649999999999    1.10039999999995   -2.95429999999959
C         0.49019999999999    0.74740000000002   -4.35780000000006
H         1.51609999999999    0.37380000000000   -4.33700000000000
H         0.44730000000000    1.62240000000002   -5.01669999999999
H        -0.14739999999999   -0.03390000000001   -4.78430000000000
C        -1.50120000000003    1.39560000000002   -2.96670000000001
H        -1.75370000000001    2.21460000000002   -3.64850000000000
H        -2.03199999999998    0.49450000000002   -3.28930000000001
H        -1.85170000000000    1.65210000000000   -1.96220000000001
C         0.84230000000000    2.20670000000003   -2.22039999999997
O         0.75200000000001    1.78259999999998   -0.83690000000000
C         2.32929999999999    2.18620000000003   -2.59900000000000
H         2.74129999999999    1.18500000000000   -2.45750000000000
H         2.48870000000000    2.51300000000002   -3.63179999999998
H         2.87199999999999    2.86269999999999   -1.93200000000001
C         0.28440000000000    3.62290000000002   -2.33659999999994
H        -0.72650000000000    3.69040000000001   -1.92910000000001
H         0.92129999999999    4.31480000000001   -1.77610000000000
H         0.26430000000000    3.94810000000000   -3.38320000000000
B         1.56300000000001    0.60960000000002    1.84840000000000
O         2.92780000000000    0.55230000000001    2.15020000000000
C         3.36330000000000    1.88660000000001    2.50260000000009
C         4.53139999999999    1.78590000000003    3.47740000000005
H         4.27910000000000    1.16090000000000    4.33689999999996
H         5.39389999999999    1.33789999999999    2.97340000000000
H         4.82389999999999    2.77870000000001    3.83819999999999
C         3.79700000000001    2.56850000000000    1.19670000000004
H         4.20020000000000    3.57089999999999    1.37680000000001
H         4.56740000000000    1.95559999999999    0.72110000000002
H         2.95240000000003    2.63260000000000    0.50539999999999
C         2.05040000000001    2.50089999999999    3.09320000000001
O         1.03750000000000    1.81619999999997    2.31910000000000
C         1.89100000000001    4.00449999999998    2.88649999999997
H         1.87290000000000    4.25440000000001    1.82410000000004
H         0.94940000000000    4.34260000000000    3.33170000000003
H         2.71080000000001    4.55150000000002    3.36630000000001
C         1.82469999999999    2.13199999999995    4.56519999999998
H         1.92610000000000    1.05330000000003    4.71319999999999
H         2.52609999999998    2.65279999999997    5.22539999999997
H         0.80630000000000    2.41580000000000    4.84900000000001
B         2.27820000000000   -1.33090000000000    0.17410000000000
O         2.89460000000000   -2.57740000000000    0.38450000000000
C         4.26930000000000   -2.48200000000001   -0.07210000000000
C         5.10900000000000   -2.05380000000001    1.14010000000000
H         4.76350000000000   -1.08740000000000    1.51750000000000
H         4.98050000000001   -2.79470000000000    1.93590000000000
H         6.17420000000000   -1.99290000000000    0.89300000000000
C         4.71949999999998   -3.84660000000001   -0.58470000000002
H         4.75280000000000   -4.56130000000000    0.24420000000001
H         5.72329999999999   -3.78370000000000   -1.02010000000002
H         4.03500000000001   -4.23599999999999   -1.34169999999998
C         4.16440000000000   -1.36220000000000   -1.16300000000002
O         3.08520000000000   -0.55030000000000   -0.65400000000000
C         5.40720000000001   -0.48870000000000   -1.31550000000001
H         6.27319999999999   -1.09010000000000   -1.61529999999999
H         5.23300000000000    0.26930000000000   -2.08589999999999
H         5.64270000000000    0.02650000000000   -0.38240000000000
C         3.71800000000000   -1.89829999999998   -2.53110000000000
H         2.82530000000000   -2.52159999999999   -2.42740000000000
H         3.46089999999998   -1.05250000000000   -3.17550000000000
H         4.50569999999997   -2.48289999999999   -3.01790000000001
H        -3.38500000000001   -4.00129999999998   -2.59309999999998
H        -5.21400000000000    1.52080000000002    1.29960000000001
C         0.23590000000001   -1.68140000000001    2.96029999999999
C        -1.01397542172817   -1.98869247608262    3.49218256928557
C         1.32727501277403   -1.68187330736453    3.83307021287002
C        -1.18545566994778   -2.21065891436545    4.85887236813978
H        -1.88462781879537   -2.05636308620564    2.84945162958237
C         1.17498695927074   -1.91962799783947    5.18950135034738
H         2.31669117443157   -1.50392169409121    3.43223399217724
C        -2.54023548361494   -2.55686678530467    5.43199219544187
C        -0.08399798877456   -2.18207730268445    5.70863277618585
H         2.03979247272917   -1.92045641198115    5.84165217765292
C        -2.65232331265881   -4.05759292082459    5.49855737967876
H        -2.61831638943165   -2.15303860684406    6.44479132328862
H        -3.33860633516649   -2.14831664518908    4.80728542726853
H        -0.21491081471313   -2.39147439515805    6.76295581577857
N        -2.11693782265077   -4.64972913451887    6.57052828251056
C        -3.24290459676265   -4.78739246936739    4.47079203002309
C        -2.14577501494543   -5.97726283963691    6.64146363142579
C        -3.27671622542190   -6.17011245239631    4.55978374080768
H        -3.66938315608572   -4.27479718824186    3.61930060893637
C        -2.71197498986644   -6.78360511928968    5.66902351328128
H        -1.69157191030238   -6.39970645900232    7.53043474188112
H        -3.73765016652264   -6.75915249199544    3.77739148112737
H        -2.71441235269726   -7.85862589819223    5.77655565924647
