      -----------------------------------------------------------      
     |                   =====================                   |     
     |                           x T B                           |     
     |                   =====================                   |     
     |                         S. Grimme                         |     
     |          Mulliken Center for Theoretical Chemistry        |     
     |                    University of Bonn                     |     
      -----------------------------------------------------------      

   * xtb version 6.4.0 (f63f532) compiled by 'knkr256@seskscpg008.prim.scp' on 2021-04-09

   xtb is free software: you can redistribute it and/or modify it under
   the terms of the GNU Lesser General Public License as published by
   the Free Software Foundation, either version 3 of the License, or
   (at your option) any later version.
   
   xtb is distributed in the hope that it will be useful,
   but WITHOUT ANY WARRANTY; without even the implied warranty of
   MERCHANTABILITY or FITNESS FOR A PARTICULAR PURPOSE.  See the
   GNU Lesser General Public License for more details.
   
   Cite this work as:
   * C. Bannwarth, E. Caldeweyher, S. Ehlert, A. Hansen, P. Pracht,
     J. Seibert, S. Spicher, S. Grimme, WIREs Comput. Mol. Sci., 2020, 11,
     e01493. DOI: 10.1002/wcms.1493
   
   for GFN2-xTB:
   * C. Bannwarth, S. Ehlert and S. Grimme., J. Chem. Theory Comput., 2019,
     15, 1652-1671. DOI: 10.1021/acs.jctc.8b01176
   for GFN1-xTB:
   * S. Grimme, C. Bannwarth, P. Shushkov, J. Chem. Theory Comput., 2017,
     13, 1989-2009. DOI: 10.1021/acs.jctc.7b00118
   for GFN0-xTB:
   * P. Pracht, E. Caldeweyher, S. Ehlert, S. Grimme, ChemRxiv, 2019, preprint.
     DOI: 10.26434/chemrxiv.8326202.v1
   for GFN-FF:
   * S. Spicher and S. Grimme, Angew. Chem. Int. Ed., 2020, 59, 15665-15673.
     DOI: 10.1002/anie.202004239
   
   for DFT-D4:
   * E. Caldeweyher, C. Bannwarth and S. Grimme, J. Chem. Phys., 2017,
     147, 034112. DOI: 10.1063/1.4993215
   * E. Caldeweyher, S. Ehlert, A. Hansen, H. Neugebauer, S. Spicher,
     C. Bannwarth and S. Grimme, J. Chem. Phys., 2019, 150, 154122.
     DOI: 10.1063/1.5090222
   * E. Caldeweyher, J.-M. Mewes, S. Ehlert and S. Grimme, Phys. Chem. Chem. Phys.
     2020, 22, 8499-8512. DOI: 10.1039/D0CP00502A
   
   for sTDA-xTB:
   * S. Grimme and C. Bannwarth, J. Chem. Phys., 2016, 145, 054103.
     DOI: 10.1063/1.4959605
   
   in the mass-spec context:
   * V. Asgeirsson, C. Bauer and S. Grimme, Chem. Sci., 2017, 8, 4879.
     DOI: 10.1039/c7sc00601b
   * J. Koopman and S. Grimme, ACS Omega 2019, 4, 12, 15120-15133.
     DOI: 10.1021/acsomega.9b02011
   
   for metadynamics refer to:
   * S. Grimme, J. Chem. Theory Comput., 2019, 155, 2847-2862
     DOI: 10.1021/acs.jctc.9b00143
   
   for SPH calculations refer to:
   * S. Spicher and S. Grimme, J. Chem. Theory Comput., 2021, 17, 1701-1714
     DOI: 10.1021/acs.jctc.0c01306
   
   with help from (in alphabetical order)
   P. Atkinson, C. Bannwarth, F. Bohle, G. Brandenburg, E. Caldeweyher
   M. Checinski, S. Dohm, S. Ehlert, S. Ehrlich, I. Gerasimov, J. Koopman
   C. Lavinge, S. Lehtola, F. März, M. Müller, F. Musil, H. Neugebauer
   J. Pisarek, P. Pracht, J. Seibert, P. Shushkov, S. Spicher, M. Stahn
   T. Strunk, J. Stückrath, T. Rose, and J. Unsleber
   
 * started run on 2021/10/08 at 07:21:52.094     

           -------------------------------------------------
          |                Calculation Setup                |
           -------------------------------------------------

          program call               : xtb xtbopt.xyz --sp --alpb thf -P 6
          hostname                   : seskscpg010.prim.scp
          coordinate file            : xtbopt.xyz
          omp threads                :                     6
          number of atoms            :                   108
          number of electrons        :                   284
          charge                     :                     0
          spin                       :                   0.0
          first test random number   :      0.16016471787076

   ID    Z sym.   atoms
    1    7 N      1, 11, 100
    2    6 C      2-6, 10, 12-15, 23, 24, 28, 32, 34, 38, 44, 45, 49, 53, 55,
                  59, 65, 66, 70, 74, 76, 80, 86-89, 91, 93, 94, 96, 101-103,
                  105
    3    1 H      7-9, 16-18, 20, 25-27, 29-31, 35-37, 39-41, 46-48, 50-52,
                  56-58, 60-62, 67-69, 71-73, 77-79, 81-85, 90, 92, 95,
                  97-99, 104, 106-108
    4   77 Ir     19
    5    5 B      21, 42, 63
    6    8 O      22, 33, 43, 54, 64, 75

molecular fragmentation (1/2 indicates fragments):
111111111111111111111111111111111111111111111111111111111111111111111111
111111111111122222222222222222222222
# atoms in fragment 1/2:    85    23
 fragment masses (1/2) :      730.32      168.21
CMA distance (Bohr)    :  12.293
constraining FC (au)   :  0.0500

           -------------------------------------------------
          |                 G F N 2 - x T B                 |
           -------------------------------------------------

        Reference                      10.1021/acs.jctc.8b01176
      * Hamiltonian:
        H0-scaling (s, p, d)           1.850000    2.230000    2.230000
        zeta-weighting                 0.500000
      * Dispersion:
        s8                             2.700000
        a1                             0.520000
        a2                             5.000000
        s9                             5.000000
      * Repulsion:
        kExp                           1.500000    1.000000
        rExp                           1.000000
      * Coulomb:
        alpha                          2.000000
        third order                    shell-resolved
        anisotropic                    true
        a3                             3.000000
        a5                             4.000000
        cn-shift                       1.200000
        cn-exp                         4.000000
        max-rad                        5.000000

      * Solvation model:               ALPB
        Solvent                        thf
        Parameter file                 internal GFN2-xTB/ALPB
        Dielectric constant                7.6000E+00
        Reference state                gsolv [1 M gas/solution]
        Free energy shift                  5.3248E-03 Eh       3.3414E+00 kcal/mol
        Temperature                        2.9815E+02 K
        Density                            8.8300E-01 kg/L
        Solvent mass                       7.2106E+01 g/mol
        Interaction kernel             P16
        Born radius scaling (c1)           1.7311E+00
        Born radii integrator          GBOBC
        Born offset                        0.0000E+00 a0       0.0000E+00 AA
        H-bond correction              true
        Ion screening                  false
        Surface tension                    1.0000E-05 Eh       1.5569E+01 dyn/cm
        Grid points                               230 per atom
q/qsh data taken from xtbrestart
CAMM data taken from xtbrestart

          ...................................................
          :                      SETUP                      :
          :.................................................:
          :  # basis functions                 273          :
          :  # atomic orbitals                 272          :
          :  # shells                          162          :
          :  # electrons                       284          :
          :  max. iterations                   250          :
          :  Hamiltonian                  GFN2-xTB          :
          :  restarted?                       true          :
          :  GBSA solvation                   true          :
          :  PC potential                    false          :
          :  electronic temp.          300.0000000     K    :
          :  accuracy                    1.0000000          :
          :  -> integral cutoff          0.2500000E+02      :
          :  -> integral neglect         0.1000000E-07      :
          :  -> SCF convergence          0.1000000E-05 Eh   :
          :  -> wf. convergence          0.1000000E-03 e    :
          :  Broyden damping             0.4000000          :
          ...................................................

 iter      E             dE          RMSdq      gap      omega  full diag
   1   -156.8573981 -0.156857E+03  0.483E-05    0.89       0.0  T
   2   -156.8573981  0.172520E-10  0.409E-05    0.89     235.2  T
   3   -156.8573981  0.313207E-10  0.413E-05    0.89     233.2  T

   *** convergence criteria satisfied after 3 iterations ***

         #    Occupation            Energy/Eh            Energy/eV
      -------------------------------------------------------------
         1        2.0000           -0.6737192             -18.3328
       ...           ...                  ...                  ...
       136        2.0000           -0.3630508              -9.8791
       137        2.0000           -0.3456330              -9.4052
       138        2.0000           -0.3295375              -8.9672
       139        2.0000           -0.3201708              -8.7123
       140        2.0000           -0.3170482              -8.6273
       141        2.0000           -0.3093450              -8.4177
       142        2.0000           -0.3070730              -8.3559 (HOMO)
       143                         -0.2745055              -7.4697 (LUMO)
       144                         -0.2467967              -6.7157
       145                         -0.2439688              -6.6387
       146                         -0.2419416              -6.5836
       147                         -0.2299819              -6.2581
       ...                                ...                  ...
       272                          3.7852495             103.0019
      -------------------------------------------------------------
                  HL-Gap            0.0325675 Eh            0.8862 eV
             Fermi-level           -0.2907477 Eh           -7.9116 eV

 SCC (total)                   0 d,  0 h,  0 min,  0.119 sec
 SCC setup                      ...        0 min,  0.003 sec (  2.606%)
 Dispersion                     ...        0 min,  0.003 sec (  2.442%)
 classical contributions        ...        0 min,  0.000 sec (  0.141%)
 integral evaluation            ...        0 min,  0.034 sec ( 28.354%)
 iterations                     ...        0 min,  0.034 sec ( 28.929%)
 molecular gradient             ...        0 min,  0.044 sec ( 36.945%)
 printout                       ...        0 min,  0.001 sec (  0.535%)

         :::::::::::::::::::::::::::::::::::::::::::::::::::::
         ::                     SUMMARY                     ::
         :::::::::::::::::::::::::::::::::::::::::::::::::::::
         :: total energy            -154.758507749742 Eh    ::
         :: total w/o Gsasa/hb      -154.712612672760 Eh    ::
         :: gradient norm              0.033115830942 Eh/a0 ::
         :: HOMO-LUMO gap              0.886207869572 eV    ::
         ::.................................................::
         :: SCC energy              -156.857398073831 Eh    ::
         :: -> isotropic ES            0.243140616485 Eh    ::
         :: -> anisotropic ES          0.015640487648 Eh    ::
         :: -> anisotropic XC          0.062197142407 Eh    ::
         :: -> dispersion             -0.148416453914 Eh    ::
         :: -> Gsolv                  -0.055489244915 Eh    ::
         ::    -> Gelec               -0.009594167933 Eh    ::
         ::    -> Gsasa               -0.048557264508 Eh    ::
         ::    -> Ghb                 -0.002662627918 Eh    ::
         ::    -> Gshift               0.005324815444 Eh    ::
         :: repulsion energy           2.090576531724 Eh    ::
         :: add. restraining           0.000000000000 Eh    ::
         :: total charge               0.000000000004 e     ::
         :::::::::::::::::::::::::::::::::::::::::::::::::::::

           -------------------------------------------------
          |                Property Printout                |
           -------------------------------------------------

    * Orbital Energies and Occupations

         #    Occupation            Energy/Eh            Energy/eV
      -------------------------------------------------------------
         1        2.0000           -0.6737192             -18.3328
       ...           ...                  ...                  ...
       130        2.0000           -0.3871832             -10.5358
       131        2.0000           -0.3856584             -10.4943
       132        2.0000           -0.3834469             -10.4341
       133        2.0000           -0.3819285             -10.3928
       134        2.0000           -0.3818616             -10.3910
       135        2.0000           -0.3793400             -10.3224
       136        2.0000           -0.3630508              -9.8791
       137        2.0000           -0.3456330              -9.4052
       138        2.0000           -0.3295375              -8.9672
       139        2.0000           -0.3201708              -8.7123
       140        2.0000           -0.3170482              -8.6273
       141        2.0000           -0.3093450              -8.4177
       142        2.0000           -0.3070730              -8.3559 (HOMO)
       143                         -0.2745055              -7.4697 (LUMO)
       144                         -0.2467967              -6.7157
       145                         -0.2439688              -6.6387
       146                         -0.2419416              -6.5836
       147                         -0.2299819              -6.2581
       148                         -0.2096848              -5.7058
       149                         -0.2043279              -5.5600
       150                         -0.2027212              -5.5163
       151                         -0.1830060              -4.9798
       152                         -0.1471775              -4.0049
       153                         -0.1250119              -3.4017
       ...                                ...                  ...
       272                          3.7852495             103.0019
      -------------------------------------------------------------
                  HL-Gap            0.0325675 Eh            0.8862 eV
             Fermi-level           -0.2907477 Eh           -7.9116 eV

     #   Z          covCN         q      C6AA      α(0)
     1   7 N        2.555    -0.122    23.689     7.228
     2   6 C        2.954     0.076    26.306     8.412
     3   6 C        2.918    -0.044    29.081     8.843
     4   6 C        2.923    -0.023    28.583     8.767
     5   6 C        2.915    -0.045    29.113     8.848
     6   6 C        2.892     0.048    26.932     8.509
     7   1 H        0.926     0.051     2.309     2.376
     8   1 H        0.926     0.054     2.276     2.359
     9   1 H        0.926     0.045     2.380     2.413
    10   6 C        2.954     0.072    26.389     8.426
    11   7 N        2.558    -0.127    23.793     7.244
    12   6 C        2.890     0.042    27.062     8.529
    13   6 C        2.915    -0.045    29.127     8.850
    14   6 C        2.922    -0.025    28.632     8.775
    15   6 C        2.918    -0.045    29.124     8.850
    16   1 H        0.926     0.043     2.404     2.425
    17   1 H        0.926     0.050     2.319     2.381
    18   1 H        0.926     0.075     2.030     2.228
    19  77 Ir       5.951    -0.156   388.206    36.436
    20   1 H        0.977     0.086     1.915     2.163
    21   5 B        2.629     0.402    16.034     6.766
    22   8 O        1.638    -0.410    21.051     6.193
    23   6 C        3.836     0.130    18.445     6.110
    24   6 C        3.755    -0.121    22.875     6.820
    25   1 H        0.925     0.053     2.282     2.363
    26   1 H        0.925     0.044     2.392     2.418
    27   1 H        0.925     0.051     2.313     2.378
    28   6 C        3.754    -0.109    22.636     6.784
    29   1 H        0.925     0.047     2.360     2.402
    30   1 H        0.925     0.041     2.435     2.440
    31   1 H        0.925     0.028     2.612     2.527
    32   6 C        3.841     0.131    18.434     6.108
    33   8 O        1.637    -0.404    20.937     6.176
    34   6 C        3.755    -0.120    22.854     6.817
    35   1 H        0.925     0.050     2.318     2.381
    36   1 H        0.925     0.045     2.379     2.412
    37   1 H        0.925     0.049     2.332     2.388
    38   6 C        3.754    -0.119    22.846     6.815
    39   1 H        0.925     0.047     2.357     2.401
    40   1 H        0.925     0.053     2.287     2.365
    41   1 H        0.925     0.045     2.388     2.417
    42   5 B        2.624     0.403    16.055     6.775
    43   8 O        1.637    -0.384    20.552     6.119
    44   6 C        3.836     0.129    18.472     6.115
    45   6 C        3.754    -0.126    22.968     6.834
    46   1 H        0.925     0.055     2.260     2.351
    47   1 H        0.925     0.056     2.251     2.346
    48   1 H        0.925     0.049     2.332     2.388
    49   6 C        3.755    -0.121    22.875     6.820
    50   1 H        0.925     0.048     2.345     2.395
    51   1 H        0.925     0.044     2.390     2.418
    52   1 H        0.925     0.052     2.291     2.367
    53   6 C        3.832     0.128    18.488     6.118
    54   8 O        1.637    -0.383    20.527     6.116
    55   6 C        3.755    -0.124    22.935     6.829
    56   1 H        0.925     0.053     2.279     2.361
    57   1 H        0.925     0.054     2.266     2.354
    58   1 H        0.925     0.048     2.348     2.396
    59   6 C        3.755    -0.124    22.928     6.828
    60   1 H        0.925     0.045     2.387     2.416
    61   1 H        0.925     0.052     2.296     2.370
    62   1 H        0.925     0.051     2.309     2.376
    63   5 B        2.625     0.402    16.062     6.775
    64   8 O        1.637    -0.378    20.443     6.103
    65   6 C        3.832     0.125    18.526     6.124
    66   6 C        3.755    -0.130    23.051     6.846
    67   1 H        0.925     0.059     2.212     2.326
    68   1 H        0.925     0.054     2.275     2.359
    69   1 H        0.925     0.049     2.332     2.388
    70   6 C        3.755    -0.129    23.031     6.843
    71   1 H        0.925     0.060     2.196     2.317
    72   1 H        0.925     0.050     2.321     2.382
    73   1 H        0.925     0.052     2.299     2.371
    74   6 C        3.829     0.127    18.498     6.120
    75   8 O        1.637    -0.382    20.516     6.114
    76   6 C        3.755    -0.124    22.928     6.827
    77   1 H        0.925     0.050     2.317     2.380
    78   1 H        0.925     0.053     2.281     2.362
    79   1 H        0.925     0.054     2.267     2.354
    80   6 C        3.755    -0.122    22.893     6.822
    81   1 H        0.925     0.040     2.450     2.448
    82   1 H        0.925     0.049     2.326     2.385
    83   1 H        0.925     0.054     2.270     2.356
    84   1 H        0.926     0.051     2.312     2.378
    85   1 H        0.926     0.048     2.347     2.396
    86   6 C        2.829    -0.019    28.461     8.742
    87   6 C        2.929    -0.039    28.963     8.826
    88   6 C        2.922    -0.041    29.011     8.833
    89   6 C        2.971     0.009    27.819     8.652
    90   1 H        0.925     0.023     2.686     2.563
    91   6 C        2.917    -0.036    28.885     8.813
    92   1 H        0.926     0.040     2.450     2.448
    93   6 C        3.816    -0.079    22.002     6.676
    94   6 C        2.923    -0.049    29.228     8.866
    95   1 H        0.925     0.031     2.571     2.508
    96   6 C        2.959     0.103    25.726     8.319
    97   1 H        0.924     0.069     2.097     2.265
    98   1 H        0.924     0.051     2.313     2.378
    99   1 H        0.926     0.031     2.576     2.510
   100   7 N        1.841    -0.254    27.467     7.767
   101   6 C        2.917    -0.049    29.225     8.865
   102   6 C        2.906     0.054    26.794     8.488
   103   6 C        2.927    -0.017    28.440     8.746
   104   1 H        0.926     0.040     2.442     2.444
   105   6 C        2.914    -0.049    29.208     8.862
   106   1 H        0.925     0.039     2.457     2.451
   107   1 H        0.926     0.042     2.418     2.432
   108   1 H        0.926     0.042     2.423     2.434

 Mol. C6AA /au·bohr⁶  :     127090.081729
 Mol. C8AA /au·bohr⁸  :    3365976.507621
 Mol. α(0) /au        :        555.296511


Wiberg/Mayer (AO) data.
largest (>0.10) Wiberg bond orders for each atom

 ---------------------------------------------------------------------------
     #   Z sym  total        # sym  WBO       # sym  WBO       # sym  WBO
 ---------------------------------------------------------------------------
     1   7 N    3.404 --     6 C    1.386     2 C    1.306    19 Ir   0.451
     2   6 C    3.979 --     3 C    1.346     1 N    1.306    10 C    1.096
     3   6 C    3.988 --     4 C    1.487     2 C    1.346     9 H    0.962
                             6 C    0.106
     4   6 C    3.985 --     3 C    1.487     5 C    1.377    84 H    0.969
     5   6 C    3.979 --     6 C    1.464     4 C    1.377     8 H    0.969
     6   6 C    3.978 --     5 C    1.464     1 N    1.386     7 H    0.957
                             3 C    0.106
     7   1 H    0.997 --     6 C    0.957
     8   1 H    0.996 --     5 C    0.969
     9   1 H    0.997 --     3 C    0.962
    10   6 C    3.979 --    15 C    1.351    11 N    1.299     2 C    1.096
    11   7 N    3.402 --    12 C    1.383    10 C    1.299    19 Ir   0.435
    12   6 C    3.973 --    13 C    1.460    11 N    1.383    18 H    0.948
                            15 C    0.105
    13   6 C    3.982 --    12 C    1.460    14 C    1.381    17 H    0.969
    14   6 C    3.982 --    15 C    1.481    13 C    1.381    85 H    0.969
    15   6 C    3.989 --    14 C    1.481    10 C    1.351    16 H    0.962
                            12 C    0.105
    16   1 H    0.998 --    15 C    0.962
    17   1 H    0.997 --    13 C    0.969
    18   1 H    0.994 --    12 C    0.948
    19  77 Ir   5.186 --    63 B    0.871    42 B    0.857    21 B    0.719
                            86 C    0.586    20 H    0.528     1 N    0.451
                            11 N    0.435
    20   1 H    0.990 --    19 Ir   0.528    86 C    0.352
    21   5 B    3.269 --    33 O    1.109    22 O    1.090    19 Ir   0.719
    22   8 O    2.189 --    21 B    1.090    23 C    0.943
    23   6 C    3.944 --    24 C    0.997    28 C    0.990    22 O    0.943
                            32 C    0.941
    24   6 C    3.994 --    23 C    0.997    26 H    0.984    27 H    0.983
                            25 H    0.983
    25   1 H    0.997 --    24 C    0.983
    26   1 H    0.997 --    24 C    0.984
    27   1 H    0.997 --    24 C    0.983
    28   6 C    3.997 --    23 C    0.990    31 H    0.985    29 H    0.984
                            30 H    0.984
    29   1 H    0.997 --    28 C    0.984
    30   1 H    0.998 --    28 C    0.984
    31   1 H    0.999 --    28 C    0.985
    32   6 C    3.941 --    38 C    0.997    34 C    0.991    23 C    0.941
                            33 O    0.940
    33   8 O    2.200 --    21 B    1.109    32 C    0.940
    34   6 C    3.994 --    32 C    0.991    36 H    0.984    37 H    0.982
                            35 H    0.982
    35   1 H    0.997 --    34 C    0.982
    36   1 H    0.997 --    34 C    0.984
    37   1 H    0.997 --    34 C    0.982
    38   6 C    3.994 --    32 C    0.997    41 H    0.984    39 H    0.983
                            40 H    0.983
    39   1 H    0.998 --    38 C    0.983
    40   1 H    0.997 --    38 C    0.983
    41   1 H    0.997 --    38 C    0.984
    42   5 B    3.333 --    43 O    1.114    54 O    1.108    19 Ir   0.857
    43   8 O    2.224 --    42 B    1.114    44 C    0.937
    44   6 C    3.937 --    45 C    0.997    49 C    0.991    53 C    0.939
                            43 O    0.937
    45   6 C    3.993 --    44 C    0.997    48 H    0.983    46 H    0.982
                            47 H    0.982
    46   1 H    0.997 --    45 C    0.982
    47   1 H    0.997 --    45 C    0.982
    48   1 H    0.996 --    45 C    0.983
    49   6 C    3.994 --    44 C    0.991    50 H    0.983    51 H    0.983
                            52 H    0.980
    50   1 H    0.997 --    49 C    0.983
    51   1 H    0.998 --    49 C    0.983
    52   1 H    0.997 --    49 C    0.980
    53   6 C    3.938 --    55 C    0.996    59 C    0.991    44 C    0.939
                            54 O    0.936
    54   8 O    2.226 --    42 B    1.108    53 C    0.936
    55   6 C    3.993 --    53 C    0.996    58 H    0.983    57 H    0.983
                            56 H    0.983
    56   1 H    0.997 --    55 C    0.983
    57   1 H    0.997 --    55 C    0.983
    58   1 H    0.996 --    55 C    0.983
    59   6 C    3.994 --    53 C    0.991    61 H    0.983    62 H    0.983
                            60 H    0.982
    60   1 H    0.998 --    59 C    0.982
    61   1 H    0.996 --    59 C    0.983
    62   1 H    0.997 --    59 C    0.983
    63   5 B    3.358 --    75 O    1.116    64 O    1.110    19 Ir   0.871
    64   8 O    2.227 --    63 B    1.110    65 C    0.939
    65   6 C    3.938 --    70 C    0.996    66 C    0.991    64 O    0.939
                            74 C    0.938
    66   6 C    3.992 --    65 C    0.991    69 H    0.983    68 H    0.983
                            67 H    0.978
    67   1 H    0.997 --    66 C    0.978
    68   1 H    0.997 --    66 C    0.983
    69   1 H    0.997 --    66 C    0.983
    70   6 C    3.992 --    65 C    0.996    72 H    0.984    73 H    0.982
                            71 H    0.982
    71   1 H    0.996 --    70 C    0.982
    72   1 H    0.996 --    70 C    0.984
    73   1 H    0.997 --    70 C    0.982
    74   6 C    3.936 --    76 C    0.996    80 C    0.991    65 C    0.938
                            75 O    0.937
    75   8 O    2.231 --    63 B    1.116    74 C    0.937
    76   6 C    3.993 --    74 C    0.996    77 H    0.983    78 H    0.982
                            79 H    0.982
    77   1 H    0.996 --    76 C    0.983
    78   1 H    0.997 --    76 C    0.982
    79   1 H    0.997 --    76 C    0.982
    80   6 C    3.995 --    74 C    0.991    81 H    0.984    83 H    0.983
                            82 H    0.983
    81   1 H    0.998 --    80 C    0.984
    82   1 H    0.997 --    80 C    0.983
    83   1 H    0.996 --    80 C    0.983
    84   1 H    0.997 --     4 C    0.969
    85   1 H    0.997 --    14 C    0.969
    86   6 C    3.953 --    87 C    1.389    88 C    1.382    19 Ir   0.586
                            20 H    0.352    94 C    0.100
    87   6 C    3.988 --    89 C    1.411    86 C    1.389    90 H    0.961
                            91 C    0.102
    88   6 C    3.988 --    91 C    1.442    86 C    1.382    92 H    0.962
                            89 C    0.104
    89   6 C    3.984 --    87 C    1.411    94 C    1.406    93 C    0.992
                            88 C    0.104
    90   1 H    0.999 --    87 C    0.961
    91   6 C    3.988 --    88 C    1.442    94 C    1.435    95 H    0.969
                            87 C    0.102
    92   1 H    0.997 --    88 C    0.962
    93   6 C    3.993 --    96 C    0.996    89 C    0.992    97 H    0.964
                            98 H    0.958
    94   6 C    3.986 --    91 C    1.435    89 C    1.406    99 H    0.970
                            86 C    0.100
    95   1 H    0.997 --    91 C    0.969
    96   6 C    3.976 --   100 N    1.415   101 C    1.383    93 C    0.996
                           105 C    0.110
    97   1 H    0.994 --    93 C    0.964
    98   1 H    0.997 --    93 C    0.958
    99   1 H    0.997 --    94 C    0.970
   100   7 N    3.052 --   102 C    1.430    96 C    1.415
   101   6 C    3.991 --   103 C    1.463    96 C    1.383   104 H    0.968
                           102 C    0.116
   102   6 C    3.981 --   105 C    1.437   100 N    1.430   106 H    0.963
                           101 C    0.116
   103   6 C    3.990 --   101 C    1.463   105 C    1.425   107 H    0.969
   104   1 H    0.998 --   101 C    0.968
   105   6 C    3.990 --   102 C    1.437   103 C    1.425   108 H    0.970
                            96 C    0.110
   106   1 H    0.998 --   102 C    0.963
   107   1 H    0.998 --   103 C    0.969
   108   1 H    0.998 --   105 C    0.970
 ---------------------------------------------------------------------------

Topologies differ in total number of bonds
Writing topology from bond orders to xtbtopo.mol

molecular dipole:
                 x           y           z       tot (Debye)
 q only:        0.335       0.232      -1.073
   full:       -0.692       0.207      -1.798       4.925
molecular quadrupole (traceless):
                xx          xy          yy          xz          yz          zz
 q only:       11.045      -0.162       6.624       7.513      12.407     -17.669
  q+dip:       10.260       2.154      12.642      10.767      13.493     -22.903
   full:        9.607       3.632      14.373       9.858      10.438     -23.980


           -------------------------------------------------
          | TOTAL ENERGY             -154.758507749742 Eh   |
          | GRADIENT NORM               0.033115830942 Eh/α |
          | HOMO-LUMO GAP               0.886207869572 eV   |
           -------------------------------------------------

------------------------------------------------------------------------
 * finished run on 2021/10/08 at 07:21:52.260     
------------------------------------------------------------------------
 total:
 * wall-time:     0 d,  0 h,  0 min,  0.166 sec
 *  cpu-time:     0 d,  0 h,  0 min,  0.973 sec
 * ratio c/w:     5.858 speedup
 SCF:
 * wall-time:     0 d,  0 h,  0 min,  0.120 sec
 *  cpu-time:     0 d,  0 h,  0 min,  0.719 sec
 * ratio c/w:     5.974 speedup

