108
 energy: -154.744439561445 gnorm: 0.074813962928 xtb: 6.4.0 (f63f532)
N        -0.96510000000014   -2.11529999999994   -0.24089999999999
C        -2.24699999999986   -1.69839999999999   -0.36219999999994
C        -3.14040000000001   -2.36819999999997   -1.21200000000001
C        -2.70220000000000   -3.47559999999995   -1.93050000000003
C        -1.37780000000001   -3.89879999999996   -1.78760000000001
C        -0.54290000000000   -3.18669999999994   -0.93509999999999
H         0.49810000000000   -3.45630000000000   -0.78940000000000
H        -0.99570000000001   -4.76030000000002   -2.32769999999999
H        -4.16499999999999   -2.02889999999999   -1.31830000000000
C        -2.62129999999986   -0.50950000000003    0.44099999999999
N        -1.62600000000001    0.07329999999999    1.16020000000002
C        -1.89680000000002    1.15240000000000    1.91689999999999
C        -3.17230000000002    1.70330000000000    1.99649999999999
C        -4.20510000000000    1.11739999999999    1.26269999999999
C        -3.92609999999994    0.00250000000001    0.47820000000002
H        -4.71960000000000   -0.46420000000000   -0.09520000000001
H        -3.34630000000000    2.57510000000001    2.62070000000000
H        -1.04450000000000    1.57419999999999    2.43690000000000
Ir        0.42150000000000   -0.81650000000000    0.91330000000000
H         0.87260000000000   -2.23030000000000    1.54050000000000
B         0.50670000000000    0.41560000000002   -0.81539999999999
O         0.19499999999999   -0.04700000000002   -2.09150000000002
C         0.00649999999999    1.10039999999995   -2.95429999999959
C         0.49019999999999    0.74740000000002   -4.35780000000006
H         1.51609999999999    0.37380000000000   -4.33700000000000
H         0.44730000000000    1.62240000000002   -5.01669999999999
H        -0.14739999999999   -0.03390000000001   -4.78430000000000
C        -1.50120000000003    1.39560000000002   -2.96670000000001
H        -1.75370000000001    2.21460000000002   -3.64850000000000
H        -2.03199999999998    0.49450000000002   -3.28930000000001
H        -1.85170000000000    1.65210000000000   -1.96220000000001
C         0.84230000000000    2.20670000000003   -2.22039999999997
O         0.75200000000001    1.78259999999998   -0.83690000000000
C         2.32929999999999    2.18620000000003   -2.59900000000000
H         2.74129999999999    1.18500000000000   -2.45750000000000
H         2.48870000000000    2.51300000000002   -3.63179999999998
H         2.87199999999999    2.86269999999999   -1.93200000000001
C         0.28440000000000    3.62290000000002   -2.33659999999994
H        -0.72650000000000    3.69040000000001   -1.92910000000001
H         0.92129999999999    4.31480000000001   -1.77610000000000
H         0.26430000000000    3.94810000000000   -3.38320000000000
B         1.56300000000001    0.60960000000002    1.84840000000000
O         2.92780000000000    0.55230000000001    2.15020000000000
C         3.36330000000000    1.88660000000001    2.50260000000009
C         4.53139999999999    1.78590000000003    3.47740000000005
H         4.27910000000000    1.16090000000000    4.33689999999996
H         5.39389999999999    1.33789999999999    2.97340000000000
H         4.82389999999999    2.77870000000001    3.83819999999999
C         3.79700000000001    2.56850000000000    1.19670000000004
H         4.20020000000000    3.57089999999999    1.37680000000001
H         4.56740000000000    1.95559999999999    0.72110000000002
H         2.95240000000003    2.63260000000000    0.50539999999999
C         2.05040000000001    2.50089999999999    3.09320000000001
O         1.03750000000000    1.81619999999997    2.31910000000000
C         1.89100000000001    4.00449999999998    2.88649999999997
H         1.87290000000000    4.25440000000001    1.82410000000004
H         0.94940000000000    4.34260000000000    3.33170000000003
H         2.71080000000001    4.55150000000002    3.36630000000001
C         1.82469999999999    2.13199999999995    4.56519999999998
H         1.92610000000000    1.05330000000003    4.71319999999999
H         2.52609999999998    2.65279999999997    5.22539999999997
H         0.80630000000000    2.41580000000000    4.84900000000001
B         2.27820000000000   -1.33090000000000    0.17410000000000
O         2.89460000000000   -2.57740000000000    0.38450000000000
C         4.26930000000000   -2.48200000000001   -0.07210000000000
C         5.10900000000000   -2.05380000000001    1.14010000000000
H         4.76350000000000   -1.08740000000000    1.51750000000000
H         4.98050000000001   -2.79470000000000    1.93590000000000
H         6.17420000000000   -1.99290000000000    0.89300000000000
C         4.71949999999998   -3.84660000000001   -0.58470000000002
H         4.75280000000000   -4.56130000000000    0.24420000000001
H         5.72329999999999   -3.78370000000000   -1.02010000000002
H         4.03500000000001   -4.23599999999999   -1.34169999999998
C         4.16440000000000   -1.36220000000000   -1.16300000000002
O         3.08520000000000   -0.55030000000000   -0.65400000000000
C         5.40720000000001   -0.48870000000000   -1.31550000000001
H         6.27319999999999   -1.09010000000000   -1.61529999999999
H         5.23300000000000    0.26930000000000   -2.08589999999999
H         5.64270000000000    0.02650000000000   -0.38240000000000
C         3.71800000000000   -1.89829999999998   -2.53110000000000
H         2.82530000000000   -2.52159999999999   -2.42740000000000
H         3.46089999999998   -1.05250000000000   -3.17550000000000
H         4.50569999999997   -2.48289999999999   -3.01790000000001
H        -3.38500000000001   -4.00129999999998   -2.59309999999998
H        -5.21400000000000    1.52080000000002    1.29960000000001
C         0.23590000000001   -1.68140000000001    2.96029999999999
C        -1.01397542172817   -1.98869247608262    3.49218256928557
C         1.32727501277403   -1.68187330736453    3.83307021287002
C        -1.18545566994778   -2.21065891436545    4.85887236813978
H        -1.88462781879537   -2.05636308620564    2.84945162958237
C         1.17498695927074   -1.91962799783947    5.18950135034738
H         2.31669117443157   -1.50392169409121    3.43223399217724
C        -2.54023548361494   -2.55686678530467    5.43199219544187
C        -0.08399798877456   -2.18207730268445    5.70863277618585
H         2.03979247272917   -1.92045641198115    5.84165217765292
C        -2.65232331265881   -4.05759292082459    5.49855737967876
H        -2.61831638943165   -2.15303860684406    6.44479132328862
H        -3.33860633516649   -2.14831664518908    4.80728542726853
H        -0.21491081471313   -2.39147439515805    6.76295581577857
N        -2.11693782265077   -4.64972913451887    6.57052828251056
C        -3.24290459676265   -4.78739246936739    4.47079203002309
C        -2.14577501494543   -5.97726283963691    6.64146363142579
C        -3.27671622542190   -6.17011245239631    4.55978374080768
H        -3.66938315608572   -4.27479718824186    3.61930060893637
C        -2.71197498986644   -6.78360511928968    5.66902351328128
H        -1.69157191030238   -6.39970645900232    7.53043474188112
H        -3.73765016652264   -6.75915249199544    3.77739148112737
H        -2.71441235269726   -7.85862589819223    5.77655565924647
108
 energy: -154.750909713524 gnorm: 0.045692310883 xtb: 6.4.0 (f63f532)
N        -0.96283403611820   -2.10043948101944   -0.25030673741664
C        -2.24136519369817   -1.69057385559898   -0.36362273584867
C        -3.13602113497891   -2.36259106444551   -1.20558434720943
C        -2.70545802893326   -3.46391406806747   -1.92117964573552
C        -1.38517782441951   -3.88268753644878   -1.78164121642713
C        -0.55525339865952   -3.16818755548927   -0.93981156596342
H         0.47852629165179   -3.44810381800191   -0.79022923390404
H        -1.00858077028630   -4.74252571895744   -2.31716768827370
H        -4.15646176306451   -2.02688464817458   -1.31025093738311
C        -2.61213947950607   -0.51351151917762    0.43560301514495
N        -1.61904927531697    0.06520895375944    1.14796505989920
C        -1.89669575442527    1.13775501737429    1.89346548862371
C        -3.16312633639618    1.68839526707971    1.98076466463510
C        -4.19542667557975    1.10459806967314    1.25454905610727
C        -3.91485888698453   -0.00237491343784    0.47481149710978
H        -4.70668877918030   -0.46543479306277   -0.09398532052930
H        -3.33783263369656    2.55137350519911    2.60793174296323
H        -1.05351351939242    1.55493997252698    2.42302769055402
Ir        0.42150000000000   -0.81650000000000    0.91330000000000
H         0.87260000000000   -2.23030000000000    1.54050000000000
B         0.49031113872253    0.42702810264263   -0.78763719147663
O         0.17547684641426   -0.03412105126094   -2.05997773517067
C         0.01074386801087    1.09623221278581   -2.94253379920851
C         0.48954773489577    0.74594904398292   -4.34752702254749
H         1.50850420434437    0.36920118931777   -4.32640671339231
H         0.44471774382620    1.62112922165885   -4.99645064857415
H        -0.14930434778466   -0.03005716686280   -4.76781901317999
C        -1.49340210027629    1.39873521063774   -2.96978914112998
H        -1.73164884150709    2.21134540287659   -3.65448815258594
H        -2.02339579694772    0.50145740498365   -3.28942771574492
H        -1.84021799905939    1.65404415130667   -1.96836069204869
C         0.83224966395366    2.20710048285305   -2.21269520819973
O         0.75565950335640    1.78272522402490   -0.83503581213873
C         2.31464299572271    2.19024743530903   -2.60062338549822
H         2.71861948085283    1.19110592093471   -2.45003264352225
H         2.46628053602531    2.51099132550120   -3.63063247669894
H         2.85711755873785    2.86514451018467   -1.93956709559903
C         0.28074871078648    3.62304009505676   -2.34095432271506
H        -0.72246556634741    3.69206198863539   -1.92847610292090
H         0.92039674065422    4.30683680132916   -1.78448230192446
H         0.26305061876918    3.93492430337473   -3.38537032821229
B         1.56400133153293    0.61720183923279    1.85534073648962
O         2.92545609284023    0.56690032489175    2.13342278778694
C         3.36327502538751    1.88752193693515    2.50805508036324
C         4.53291779829669    1.78935668682242    3.47900158191643
H         4.28003659494248    1.16089524694788    4.32882563806172
H         5.38815905641567    1.34513514555011    2.97142579784798
H         4.81564676612070    2.77955843812920    3.83540733922218
C         3.79953194178548    2.57491098239134    1.20985312348357
H         4.20098101146257    3.57056360271416    1.39386955905299
H         4.56349893733146    1.96315202706649    0.73295308439697
H         2.95128944755623    2.62703177754489    0.52859699847096
C         2.05319469979379    2.50524262676862    3.08854834905852
O         1.04044354305828    1.80955276156155    2.33540556774908
C         1.89447978897118    4.00745384645301    2.88796763736563
H         1.86893820483365    4.25108808357878    1.82964929666312
H         0.95709478010182    4.33656372612209    3.33470102101537
H         2.71508123789899    4.54368239180522    3.36405054756985
C         1.83267295436136    2.14108557189126    4.56078272082770
H         1.93323845066555    1.06508110621962    4.69837115908939
H         2.53410907433844    2.66255713538715    5.20968911068222
H         0.81840433739332    2.42022976537044    4.84512218256492
B         2.27820000000000   -1.33090000000000    0.17410000000000
O         2.90142401960198   -2.56187904164398    0.39092054036027
C         4.26557642462597   -2.48375933838594   -0.07761721518176
C         5.10998927125997   -2.05888751742760    1.12825304609468
H         4.75387436200273   -1.09852933141895    1.49893096438244
H         4.97840641483596   -2.79417744738126    1.92138619218243
H         6.16774354237915   -1.99887063205047    0.87639976403191
C         4.72003816196524   -3.84610775050444   -0.58721247220809
H         4.74951279772614   -4.55028876468799    0.24301640751279
H         5.71776805204096   -3.77479149839130   -1.01956554576056
H         4.03416333199436   -4.23362437595610   -1.33578527431471
C         4.16621822422284   -1.36099543959126   -1.15795853323477
O         3.07421973508308   -0.56410043245213   -0.66267366650741
C         5.40957555464772   -0.49292024890424   -1.31591525238570
H         6.26576734813452   -1.09883645570504   -1.61145297913247
H         5.23118428279170    0.25803704867483   -2.08438986087092
H         5.63717841750322    0.02187511219213   -0.38697311046950
C         3.72919999609224   -1.90059463186494   -2.52592982605422
H         2.83699066954327   -2.51578955705601   -2.41700826367013
H         3.47187413417582   -1.05914631500723   -3.16790633127546
H         4.51913110330387   -2.47793603168985   -3.00358966339490
H        -3.38454045932071   -3.98859934491930   -2.57956774400289
H        -5.19944923231518    1.50592645277291    1.29558749876591
C         0.23590000000001   -1.68140000000001    2.96029999999999
C        -1.01330393118413   -1.98959615051316    3.49147592589445
C         1.32572517144700   -1.67922843938809    3.83676285441275
C        -1.18587796358421   -2.21111929306250    4.85604853836652
H        -1.88229181517969   -2.05839398426018    2.84875972144117
C         1.16911727451824   -1.91562379055800    5.19064278821020
H         2.31395660166062   -1.50018300297697    3.43897373190257
C        -2.54072279046581   -2.56025496439505    5.42789297825953
C        -0.08836566828987   -2.17928197287754    5.70552326371371
H         2.03098170944395   -1.91458738438467    5.84443248623802
C        -2.65197422073489   -4.05938913681972    5.49688395426697
H        -2.62146510755937   -2.15539483576911    6.43777944710887
H        -3.33746581702256   -2.15393945003107    4.80346349544929
H        -0.22081783394408   -2.38707714578789    6.75756282130494
N        -2.12083175667258   -4.64828015925561    6.56567673354225
C        -3.24150173490343   -4.78976957889812    4.46909225402533
C        -2.14806834473042   -5.97033958020844    6.64045661389325
C        -3.27521204080457   -6.17045177003145    4.55899747187057
H        -3.66697584661586   -4.27885058876205    3.61812982681360
C        -2.71173431870515   -6.78099643178847    5.66946286827457
H        -1.69515107907188   -6.38993450836226    7.53030851400912
H        -3.73368765689321   -6.76026070321243    3.77764235502510
H        -2.71279939294480   -7.85462451556424    5.77925872400733
108
 energy: -154.752581125271 gnorm: 0.036312165217 xtb: 6.4.0 (f63f532)
N        -0.95685893549008   -2.09331658748303   -0.25771927610298
C        -2.23358368782034   -1.68470450835507   -0.36592303409328
C        -3.13364553032291   -2.35606663836900   -1.20210225939518
C        -2.71136164723299   -3.45473741392604   -1.91831961147609
C        -1.39127213078636   -3.87392774597525   -1.78244519284041
C        -0.56150537290016   -3.15958837068098   -0.94562243294222
H         0.47097506396432   -3.44344186027789   -0.80368320167828
H        -1.02038527265128   -4.73335494660498   -2.31628736874226
H        -4.15294955314858   -2.02149554100021   -1.29862839058799
C        -2.59998644034323   -0.51604320092375    0.42888367366051
N        -1.60907289471625    0.05679452645063    1.14324685308250
C        -1.89214608566411    1.12450349475463    1.88339733898265
C        -3.15347915584899    1.67775625403234    1.97192685101020
C        -4.18686360066667    1.09538138082443    1.24602671480937
C        -3.90295188128099   -0.00567896837308    0.46683747911392
H        -4.69254604265319   -0.46978678850071   -0.09990915468006
H        -3.32800974970009    2.53732444741172    2.59827254832954
H        -1.05383906351100    1.54605900116798    2.41399854166882
Ir        0.42150000000000   -0.81650000000000    0.91330000000000
H         0.87260000000000   -2.23030000000000    1.54050000000000
B         0.49426760609465    0.43961653339481   -0.76331115957642
O         0.15544823874148   -0.02364725490548   -2.02775140498568
C         0.00577797540742    1.09306557341701   -2.92156109668962
C         0.48942807632328    0.73598007678732   -4.32363505446827
H         1.50459792082635    0.35527977809286   -4.30344893296287
H         0.44493275000804    1.61385918959069   -4.96340875391592
H        -0.15372238721813   -0.03396525747370   -4.74199531046939
C        -1.49661470531355    1.40522339507817   -2.96893118144046
H        -1.71604858376510    2.21357295042820   -3.66008572694014
H        -2.02598310465147    0.51017186320341   -3.28911266793766
H        -1.84641314089302    1.66483357772588   -1.97193444701592
C         0.82456239313251    2.20720090330164   -2.20029746378686
O         0.75970273231142    1.78933642614634   -0.82686896709604
C         2.30430609772394    2.19455157668960   -2.59897201997824
H         2.70514236434758    1.19699024797439   -2.44064954656760
H         2.44249679282988    2.50681211365335   -3.63031893603814
H         2.84722037271259    2.87446851044077   -1.94704424783840
C         0.27060255164078    3.62157818304637   -2.33963055823952
H        -0.72846033077468    3.69688959296930   -1.92366302597139
H         0.91546450811727    4.30466411969519   -1.79340041682156
H         0.25336597193713    3.91575528320361   -3.38577382788526
B         1.56655752338458    0.62473805661375    1.85983928896227
O         2.92441196238661    0.57897687584094    2.11851850739127
C         3.36260454255108    1.88953880231503    2.50795849916630
C         4.53018978219831    1.78963976774097    3.48209363300328
H         4.27986403569967    1.15630165236484    4.32608238922368
H         5.38331651883784    1.35274519296719    2.97032667810449
H         4.80313445111581    2.77922343726321    3.83733655587067
C         3.80400919805632    2.58840743148885    1.21785222051223
H         4.20218344172435    3.58004756914714    1.41013366249423
H         4.56719599126098    1.97927438123804    0.74098614196501
H         2.95448018245729    2.63518537705556    0.54088643005821
C         2.05468440623301    2.50584936612041    3.08822115632735
O         1.04294482189635    1.80349785493533    2.34917884582116
C         1.89751557262180    4.00799484422762    2.88556414749053
H         1.86392733608096    4.25003765438157    1.82926211777725
H         0.96530286471958    4.33355754883125    3.33888572413538
H         2.72201885394896    4.53542921530857    3.35671966421697
C         1.84469476246187    2.15053956704993    4.56489211033227
H         1.94623714552607    1.07593752585493    4.69709009394454
H         2.54950459566473    2.67513778615686    5.20209459565978
H         0.83294705868922    2.42806424327128    4.85086585541344
B         2.27820000000000   -1.33090000000000    0.17410000000001
O         2.90381170277576   -2.55004108284834    0.40013796385047
C         4.25836402318829   -2.48258100296933   -0.07781639235219
C         5.11404338900354   -2.06110449023688    1.12095907683195
H         4.75333920926645   -1.10336137625820    1.48833521438880
H         4.98315871959908   -2.79472240458453    1.91223231485637
H         6.16616491714524   -2.00239836585732    0.86013969692041
C         4.71139386908036   -3.84498290968547   -0.58983335392053
H         4.74329387670777   -4.54240017884279    0.24221557869054
H         5.70500983064469   -3.76504171849268   -1.02143979540225
H         4.02513417209924   -4.23429134027983   -1.33364288591771
C         4.16144784473042   -1.36230579699782   -1.15683387819128
O         3.06248323655126   -0.57428420999584   -0.67201653530844
C         5.40639174179929   -0.49610068184105   -1.31111141128555
H         6.25482576003249   -1.10960526052508   -1.60070665985596
H         5.22957684414634    0.24779107006156   -2.08291778328481
H         5.63066355698387    0.02141133903749   -0.38556183016215
C         3.73908756317095   -1.90625039081707   -2.52835169422919
H         2.84776771561408   -2.51850185646344   -2.41825539286894
H         3.48555427338456   -1.06687008943258   -3.17113375815441
H         4.53512895332276   -2.47966736611034   -2.99293968236168
H        -3.39210218574137   -3.97975934371147   -2.57030214696275
H        -5.18923407945405    1.49332279659534    1.29055628037138
C         0.23590000000002   -1.68140000000000    2.96029999999999
C        -1.01381565452689   -1.99126674610132    3.48799638411052
C         1.32328706744422   -1.67368506822649    3.84125219700648
C        -1.19007883112098   -2.21022333396663    4.85161746096643
H        -1.88017524621647   -2.06366594559733    2.84291547655696
C         1.16119447136047   -1.90745517510308    5.19387216103977
H         2.31129476415894   -1.49305825166223    3.44633470594635
C        -2.54630367491954   -2.56118848870020    5.41951807350629
C        -0.09681473835743   -2.17383166534538    5.70397049814980
H         2.01980910717804   -1.90215520732961    5.85097900698402
C        -2.65372563031440   -4.05950137433971    5.49230639860147
H        -2.63029317555754   -2.15447190901823    6.42736587169490
H        -3.34110353766998   -2.15852720025579    4.79201601731693
H        -0.23230894714655   -2.37955389997096    6.75499084191098
N        -2.12625323387363   -4.64450669058231    6.56098870506740
C        -3.24000634220649   -4.79307542133395    4.46411669615730
C        -2.15097742100726   -5.96342030813078    6.64147922593467
C        -3.27175772934514   -6.17286935667409    4.55766361205812
H        -3.66410442069148   -4.28517757944083    3.61157646345827
C        -2.71047477189209   -6.77949732378345    5.67147158708474
H        -1.70064199448687   -6.37985786696947    7.53377309200062
H        -3.72689112173000   -6.76540508953076    3.77721881181664
H        -2.70989573343634   -7.85206803528534    5.78481471903054
108
 energy: -154.753195136896 gnorm: 0.035699139812 xtb: 6.4.0 (f63f532)
N        -0.94932107185327   -2.09102604601250   -0.26757560942135
C        -2.22689567593440   -1.68223169900284   -0.36985632360528
C        -3.13266135741695   -2.35388234546730   -1.20099331963776
C        -2.71657212251405   -3.45290914741231   -1.91866974586331
C        -1.39460508701784   -3.87235729443467   -1.78949304037922
C        -0.56034569842938   -3.15699879458321   -0.95786822122503
H         0.47211123405180   -3.44491114587758   -0.82147414804524
H        -1.02823535464972   -4.73272611023966   -2.32382972132002
H        -4.15198038925120   -2.01772922152542   -1.29065673754983
C        -2.59048640350542   -0.51676420721010    0.42443616240439
N        -1.59970336022707    0.05479893327786    1.14071131776064
C        -1.88514782080433    1.12226465578956    1.87916540386126
C        -3.14609012780175    1.67531835951883    1.96833659917659
C        -4.18049823093411    1.09237926525483    1.24163754850777
C        -3.89426412042523   -0.00635459906106    0.46161593499837
H        -4.68161869025954   -0.47041203644595   -0.10796867909971
H        -3.32122402689421    2.53319060612508    2.59563053517908
H        -1.04994566274164    1.54436151670882    2.41476790221400
Ir        0.42150000000000   -0.81650000000000    0.91330000000000
H         0.87260000000000   -2.23030000000000    1.54050000000000
B         0.47977520008337    0.45533529635235   -0.74273875355964
O         0.13288521073627   -0.01454645758521   -2.00249763568925
C        -0.00369604160756    1.09290900389726   -2.90387087934874
C         0.48712953744226    0.72396361679746   -4.30122920655487
H         1.49959231955300    0.33697551488880   -4.27432869647183
H         0.45018548051087    1.60099948226385   -4.94193453750755
H        -0.15942056526389   -0.04330874540614   -4.71872611373366
C        -1.50479655202897    1.41362791453371   -2.96775777982446
H        -1.70930638627035    2.21935287518899   -3.66588793096276
H        -2.03521276406520    0.51983806145268   -3.28892337845925
H        -1.86280099263753    1.68055684528228   -1.97578519415866
C         0.81639441181208    2.20985568030010   -2.18807931202782
O         0.76005063895385    1.79990916944587   -0.81526771542693
C         2.29456902061658    2.19797635774524   -2.59610886104616
H         2.69733470427909    1.20241326355865   -2.43078695633692
H         2.42351528489084    2.50131471343509   -3.63088853667071
H         2.83904220213467    2.88549522863137   -1.95375379977857
C         0.26133217036409    3.62390082615075   -2.33645721767727
H        -0.73551656404746    3.70373112716573   -1.91650393630485
H         0.90999857872470    4.31178380665278   -1.80100412372528
H         0.23948543739890    3.90454145295190   -3.38596365287655
B         1.56757850328878    0.62763963341932    1.86431818614491
O         2.92605794472792    0.58643423290651    2.10528681252958
C         3.36321199133224    1.89164937276322    2.50642403915305
C         4.53002922066752    1.78795373753015    3.48268510816211
H         4.28085451811153    1.14823573668408    4.32196424780424
H         5.38538112125573    1.35831688392166    2.96880252337133
H         4.79637209464670    2.77693057188272    3.84366403836940
C         3.80866781775819    2.60215569870573    1.22296109833326
H         4.20312337541059    3.59274536424518    1.42514583334037
H         4.57531764077398    1.99823630383157    0.74519854703100
H         2.96081265977291    2.65077133484128    0.54445722996619
C         2.05604736157089    2.50634671789238    3.09028663397470
O         1.04264575901329    1.79826699461642    2.36275646509187
C         1.89732382340779    4.00876037924458    2.88406479190036
H         1.85522433940392    4.24866334044702    1.82764312930916
H         0.96958835116458    4.33580247506005    3.34507729070424
H         2.72721856765429    4.53405306756638    3.34737121295608
C         1.85667361041015    2.15906044053708    4.57140748111806
H         1.96008954631781    1.08528819274900    4.70652456263614
H         2.56622733359051    2.68807940624055    5.19886268506598
H         0.84681050155092    2.43737731013955    4.86225805503177
B         2.27820000000000   -1.33090000000000    0.17410000000001
O         2.90543262136716   -2.54382042117750    0.41012523074659
C         4.25362400601318   -2.48248426722294   -0.07698039371591
C         5.11946757884246   -2.06222967624127    1.11607377563116
H         4.76058557300432   -1.10446113366959    1.48463488831275
H         4.99229705145704   -2.79596298966311    1.90748254731032
H         6.16892525512098   -2.00481821825437    0.84682628216203
C         4.70226143735882   -3.84706896773186   -0.58994630388804
H         4.73788351605395   -4.54248298399278    0.24331192795022
H         5.69346580953109   -3.76496970351353   -1.02562645784483
H         4.01276026073035   -4.23712549527743   -1.33013212618866
C         4.15730904134259   -1.36418915463147   -1.15809015670207
O         3.05336785484660   -0.58025019951514   -0.68246556401574
C         5.40264136923021   -0.49671760491550   -1.30799479999854
H         6.25045930717589   -1.11423978249478   -1.58975541902140
H         5.23013318368028    0.24298328665256   -2.08452089056164
H         5.62212510348148    0.02450424496618   -0.38360967120854
C         3.74746027732392   -1.91246308396882   -2.53273760323857
H         2.85655104345482   -2.52563262527397   -2.42769265819092
H         3.49925944039728   -1.07472479799254   -3.17950433959977
H         4.54971145485249   -2.48504258293716   -2.98648001424847
H        -3.40104287241120   -3.97755708473366   -2.56662604552642
H        -5.18311603432783    1.48858307189625    1.28697142211896
C         0.23590000000003   -1.68139999999999    2.96029999999998
C        -1.01503018913519   -1.99338642663002    3.48310027727698
C         1.31996937110581   -1.66714596065114    3.84566961389383
C        -1.19659857605621   -2.20821267694849    4.84663807221538
H        -1.87825908762193   -2.07077365241136    2.83434600283683
C         1.15225101828406   -1.89709480451623    5.19814082683930
H         2.30868118482844   -1.48428643682602    3.45378708523698
C        -2.55472904871280   -2.56066676915883    5.40918260285963
C        -0.10735150310418   -2.16604366106977    5.70362118880635
H         2.00767239719626   -1.88653726498279    5.85938159737679
C        -2.65795514253032   -4.05881956960683    5.48626760836101
H        -2.64380536223627   -2.15103279173117    6.41536991855826
H        -3.34745349161656   -2.16234733318879    4.77650397407933
H        -0.24662208655998   -2.36919813466458    6.75461503626147
N        -2.13318609164404   -4.63929229843132    6.55801285385873
C        -3.23878905239516   -4.79728299666858    4.45779354840713
C        -2.15465956574284   -5.95753708335739    6.64374299131099
C        -3.26728359868948   -6.17679136869914    4.55627281643310
H        -3.66100589071315   -4.29333540445918    3.60203123707525
C        -2.70880486292029   -6.77864952210961    5.67435150409391
H        -1.70700526979614   -6.37046397188586    7.53905715759681
H        -3.71810111245585   -6.77323766184910    3.77623064633002
H        -2.70635557832063   -7.85066367215984    5.79150583668520
108
 energy: -154.753912834929 gnorm: 0.035941639634 xtb: 6.4.0 (f63f532)
N        -0.93909709331917   -2.09186893330421   -0.28094620481878
C        -2.21807272570595   -1.68131849191003   -0.37555243370261
C        -3.13088246109576   -2.35296597298767   -1.20107245355517
C        -2.72261245464892   -3.45254507283283   -1.92168207987547
C        -1.39811485566428   -3.87221487072413   -1.80300451804451
C        -0.55685723314687   -3.15688842842383   -0.97706851116110
H         0.47720525509463   -3.44696178101018   -0.85223517655794
H        -1.03733019626034   -4.73302590190951   -2.34072323693272
H        -4.15072032056050   -2.01470552219479   -1.28082749352884
C        -2.57793145289712   -0.51770529376089    0.41927654683651