108
 energy: -154.758507748533 gnorm: 0.000214312294 xtb: 6.4.0 (f63f532)
N        -0.90901445597896   -2.00531619982747   -0.39431173476766
C        -2.16113021170452   -1.53379126505775   -0.55578101926095
C        -3.03948396432743   -2.12688380479452   -1.47290415265039
C        -2.61999955297944   -3.19473506302719   -2.23445001329856
C        -1.31810869835077   -3.66275416589332   -2.06562657038907
C        -0.51460980124390   -3.03699507202505   -1.13652900170635
H         0.49886689190123   -3.37136611533403   -0.96410065014553
H        -0.94641287255664   -4.49539056827794   -2.64051585580920
H        -4.04453202587011   -1.75569831329873   -1.58826953455129
C        -2.52863701882996   -0.38861410960540    0.26508888450823
N        -1.59550397160498    0.05163411349917    1.13767169452529
C        -1.89240255625753    1.08895569200206    1.91809300246426
C        -3.09930113244664    1.75539626395375    1.87484604278839
C        -4.06299079426541    1.32851563526790    0.96376718004146
C        -3.77056900552431    0.25034567480713    0.15760200960706
H        -4.50242387479847   -0.09230721064607   -0.55508662420270
H        -3.28668030593506    2.58628788046008    2.53553934581833
H        -1.10993820266834    1.39182567851160    2.59647902742596
Ir        0.42149999999995   -0.81649999999993    0.91329999999981
H         0.87260000000000   -2.23029999999995    1.54050000000007
B         0.42030341128618    0.64519068753508   -0.57885402342935
O        -0.26972559153367    0.41649141304555   -1.75727407149110
C        -0.32757857108935    1.61858775878037   -2.53206176842937
C        -0.14296386656036    1.28825431359833   -4.01100172655806
H         0.74390611810934    0.68154773961536   -4.16114790488291
H        -0.06298988300963    2.20386457988977   -4.59127092150077
H        -1.00412215848830    0.72434412389930   -4.36172739321268
C        -1.72259710004394    2.22404715551371   -2.31836973551017
H        -1.85847478626279    3.12028463863685   -2.91655742098477
H        -2.46986026276235    1.48762597060026   -2.60780668179238
H        -1.87112150371757    2.45798040242922   -1.26597749593197
C         0.80989013738240    2.48548573034772   -1.89993486865677
O         0.93567495659581    1.92127009271525   -0.58801302050441
C         2.16025997116104    2.28161000796372   -2.59781024120925
H         2.40384543639769    1.22191262735726   -2.59812069873760
H         2.14871922932205    2.67333756592560   -3.61093897768072
H         2.92823519337482    2.79756238604312   -2.02619652184184
C         0.50579494679104    3.97896270481292   -1.80104084196520
H        -0.34283953365191    4.16579768972259   -1.15033076718388
H         1.37047565641097    4.49152657882690   -1.38612779873631
H         0.30081207992777    4.38301986241932   -2.78925881143477
B         1.56660125852279    0.63275607949121    1.88783097919710
O         2.93701835685207    0.73997062802515    1.92925118224903
C         3.31816178828765    2.00361035750175    2.49090693409007
C         4.53673757351244    1.82261473510194    3.39501227451659
H         4.36342161188444    1.04671384869617    4.13310840249251
H         5.38996016790981    1.52813515568714    2.78925429832479
H         4.77063452823971    2.75741307258667    3.89736416006341
C         3.68478435771134    2.91157240388622    1.31065076249639
H         3.97009650219376    3.90521257267893    1.64318431675492
H         4.51958301404583    2.46446310868683    0.77535511193574
H         2.83925948800972    2.96204671978797    0.62949349864190
C         2.01285949180474    2.46113523617600    3.22764087178315
O         0.99918310941827    1.66702618907548    2.59814848633665
C         1.66895232896230    3.94069309518591    3.06391747385467
H         1.48038716129974    4.17598107185044    2.02186116420805
H         0.76870423769504    4.16181936119152    3.63203934931314
H         2.48034790334793    4.55836254155374    3.43935289046649
C         2.00508282812957    2.10342701061850    4.71948257680641
H         2.19837174885961    1.04224777448629    4.84822315806200
H         2.74047251518935    2.68632299201911    5.26548541170791
H         1.01719424625543    2.31291571419180    5.12297645556316
B         2.27819999999984   -1.33090000000019    0.17410000000046
O         3.11836342391614   -2.27716644685541    0.72355928654087
C         4.39594574996209   -2.24786270810378    0.07583863370375
C         5.34164569744692   -1.48440560369164    1.00932530401641
H         4.90966171639923   -0.51201429409217    1.22739366748835
H         5.41826185838348   -2.03320367625405    1.94464882992407
H         6.33214457044676   -1.37963394131018    0.57754012846889
C         4.90866001978392   -3.67672582896142   -0.10528688272283
H         5.06573852969925   -4.11799630941665    0.87538266376920
H         5.85182833088377   -3.66998117762087   -0.64446041610139
H         4.19060360522249   -4.29087723050157   -0.63825760246336
C         4.09164650883594   -1.47626618027324   -1.25669190982915
O         2.84507643194802   -0.82302933072866   -0.97261643476672
C         5.13245499283263   -0.42520998634049   -1.63890195799823
H         6.10959003753851   -0.88578915320081   -1.75544726585111
H         4.84615563990623    0.03418073561178   -2.58167685663656
H         5.17855054733406    0.35207409631423   -0.88409531885776
C         3.85438792885470   -2.40587326005568   -2.45480849786978
H         3.08662393238085   -3.13713323809121   -2.21739364522152
H         3.50112256071702   -1.80989983337122   -3.29295253158018
H         4.77010931792403   -2.91318582995058   -2.74289796410801
H        -3.28626145578703   -3.65793772324526   -2.94636504183434
H        -5.01676437035697    1.82884548456425    0.88945472368538
C         0.23590000000170   -1.68140000000008    2.96029999999929
C        -1.05363834236203   -2.04369934607754    3.33864388515389
C         1.19900130179295   -1.54247685282968    3.95607673305067
C        -1.41048681200030   -2.16436550264855    4.67604723799117
H        -1.80963413612254   -2.23491843304848    2.58793115236734
C         0.85543789022771   -1.66888795900711    5.29185002589290
H         2.22029316998989   -1.33717581856574    3.67369927950298
C        -2.81188163465527   -2.55535734737003    5.07221882297749
C        -0.44690172132051   -1.96536142537876    5.65589662726950
H         1.60832361698213   -1.54461768305711    6.05812459165275
C        -2.82987284721565   -3.96197387014911    5.60693245764451
H        -3.18829627488248   -1.89111650376071    5.85148791234853
H        -3.47351242002817   -2.49281500483680    4.20531716268150
H        -0.71695145580775   -2.06317389751640    6.69768718607325
N        -3.29188259095615   -4.13242472314701    6.83874751946083
C        -2.36456604476531   -5.02610484140507    4.83588432958228
C        -3.31245275380928   -5.35455512786905    7.34711180502461
C        -2.38824832750915   -6.29998356799299    5.37259158695386
H        -1.98658387378768   -4.84418621298613    3.84153112716257
C        -2.87500467846352   -6.47480092480339    6.66101986493423
H        -3.70012236645972   -5.42835557790501    8.35552838312742
H        -2.03398849457366   -7.14436886327322    4.79891957902714
H        -2.91074480311090   -7.45091728185974    7.11867566943508
