99
 energy: -139.582858646786 gnorm: 0.073937992498 xtb: 6.4.0 (f63f532)
N        -0.96510000000000   -2.11530000000000   -0.24090000000000
C        -2.24700000000000   -1.69840000000000   -0.36220000000000
C        -3.14040000000000   -2.36820000000000   -1.21200000000000
C        -2.70220000000000   -3.47560000000000   -1.93050000000000
C        -1.37780000000000   -3.89880000000000   -1.78760000000000
C        -0.54290000000000   -3.18670000000000   -0.93510000000000
H         0.49810000000000   -3.45630000000000   -0.78940000000000
H        -0.99570000000000   -4.76030000000000   -2.32770000000000
H        -4.16500000000000   -2.02890000000000   -1.31830000000000
C        -2.62130000000000   -0.50950000000000    0.44100000000000
N        -1.62600000000000    0.07330000000000    1.16020000000000
C        -1.89680000000000    1.15240000000000    1.91690000000000
C        -3.17230000000000    1.70330000000000    1.99650000000000
C        -4.20510000000000    1.11740000000000    1.26270000000000
C        -3.92610000000000    0.00250000000000    0.47820000000000
H        -4.71960000000000   -0.46420000000000   -0.09520000000000
H        -3.34630000000000    2.57510000000000    2.62070000000000
H        -1.04450000000000    1.57420000000000    2.43690000000000
Ir        0.42150000000000   -0.81650000000000    0.91330000000000
H         0.87260000000000   -2.23030000000000    1.54050000000000
B         0.50670000000000    0.41560000000000   -0.81540000000000
O         0.19500000000000   -0.04700000000000   -2.09150000000000
C         0.00650000000000    1.10040000000000   -2.95430000000000
C         0.49020000000000    0.74740000000001   -4.35780000000000
H         1.51610000000000    0.37380000000000   -4.33700000000000
H         0.44730000000000    1.62240000000000   -5.01670000000000
H        -0.14740000000000   -0.03390000000000   -4.78430000000000
C        -1.50120000000000    1.39560000000000   -2.96670000000000
H        -1.75370000000000    2.21460000000000   -3.64850000000000
H        -2.03200000000000    0.49450000000000   -3.28930000000000
H        -1.85170000000000    1.65210000000000   -1.96220000000000
C         0.84230000000000    2.20670000000000   -2.22040000000000
O         0.75200000000000    1.78260000000000   -0.83690000000000
C         2.32930000000000    2.18620000000000   -2.59900000000000
H         2.74130000000000    1.18500000000000   -2.45750000000000
H         2.48870000000000    2.51300000000000   -3.63180000000000
H         2.87200000000000    2.86270000000000   -1.93200000000000
C         0.28440000000000    3.62290000000000   -2.33660000000000
H        -0.72650000000000    3.69040000000000   -1.92910000000000
H         0.92130000000000    4.31480000000000   -1.77610000000000
H         0.26430000000000    3.94810000000000   -3.38320000000000
B         1.56300000000000    0.60960000000000    1.84840000000000
O         2.92780000000000    0.55230000000000    2.15020000000000
C         3.36330000000000    1.88660000000000    2.50260000000000
C         4.53140000000000    1.78590000000000    3.47740000000000
H         4.27910000000000    1.16090000000000    4.33690000000000
H         5.39390000000000    1.33790000000000    2.97340000000000
H         4.82390000000000    2.77870000000000    3.83820000000000
C         3.79700000000000    2.56850000000000    1.19670000000001
H         4.20020000000000    3.57090000000000    1.37680000000000
H         4.56740000000000    1.95560000000000    0.72110000000000
H         2.95240000000000    2.63260000000000    0.50540000000000
C         2.05040000000000    2.50090000000000    3.09320000000000
O         1.03750000000000    1.81620000000000    2.31910000000000
C         1.89100000000000    4.00450000000000    2.88650000000000
H         1.87290000000000    4.25440000000000    1.82410000000000
H         0.94940000000000    4.34260000000000    3.33170000000000
H         2.71080000000000    4.55150000000000    3.36630000000000
C         1.82470000000000    2.13200000000000    4.56520000000001
H         1.92610000000000    1.05330000000001    4.71320000000000
H         2.52610000000000    2.65280000000000    5.22540000000000
H         0.80630000000000    2.41580000000000    4.84900000000000
B         2.27820000000000   -1.33090000000000    0.17410000000000
O         2.89460000000000   -2.57740000000000    0.38450000000000
C         4.26930000000000   -2.48200000000000   -0.07210000000000
C         5.10900000000000   -2.05380000000000    1.14010000000000
H         4.76350000000000   -1.08740000000000    1.51750000000000
H         4.98050000000000   -2.79470000000000    1.93590000000000
H         6.17420000000000   -1.99290000000000    0.89300000000000
C         4.71950000000000   -3.84660000000000   -0.58470000000000
H         4.75280000000000   -4.56130000000000    0.24420000000000
H         5.72330000000000   -3.78370000000000   -1.02010000000000
H         4.03500000000000   -4.23600000000000   -1.34170000000000
C         4.16440000000000   -1.36220000000000   -1.16300000000000
O         3.08520000000000   -0.55030000000000   -0.65400000000000
C         5.40720000000000   -0.48870000000000   -1.31550000000000
H         6.27320000000000   -1.09010000000000   -1.61530000000000
H         5.23300000000000    0.26930000000000   -2.08590000000000
H         5.64270000000000    0.02650000000000   -0.38240000000000
C         3.71800000000000   -1.89830000000000   -2.53110000000000
H         2.82530000000000   -2.52160000000000   -2.42740000000000
H         3.46090000000000   -1.05250000000000   -3.17550000000000
H         4.50570000000000   -2.48290000000000   -3.01790000000000
H        -3.38500000000000   -4.00130000000000   -2.59310000000000
H        -5.21400000000000    1.52080000000000    1.29960000000000
C         0.23590000000000   -1.68140000000000    2.96030000000000
C        -0.97826929700627   -2.20862835177436    3.39390059402772
C         1.29430973969112   -1.70071425222546    3.87272454066156
C        -1.13141372810136   -2.71510498853024    4.67922296481450
H        -1.82621507282253   -2.26280159016793    2.72054923797353
C         1.14763901765947   -2.20755699717762    5.15366895336941
H         2.26675599875366   -1.35019297052417    3.55210304136201
C        -0.06522477608842   -2.75107935659346    5.57213363695847
H        -2.08753929355092   -3.13258526851434    4.97435791180743
H         1.99934950102005   -2.23120438772780    5.82386500411277
C        -0.17376495004437   -3.40336692129372    6.91840471113889
H         0.56903891747421   -4.19892018957692    7.00577845037947
H        -1.16333738888677   -3.83507638919468    7.06818790825556
H         0.01937571685221   -2.68204456408690    7.71424996458766
99
 energy: -139.589174113378 gnorm: 0.046171085392 xtb: 6.4.0 (f63f532)
N        -0.96045980490714   -2.09895502560308   -0.25174890482192
C        -2.23956669934275   -1.68996493887222   -0.36410574976004
C        -3.13444718129736   -2.36212931200161   -1.20588441223829
C        -2.70413729398121   -3.46333220247554   -1.92149932563358
C        -1.38368363775392   -3.88189394748261   -1.78225519134984
C        -0.55343283522863   -3.16709782725993   -0.94113186478321
H         0.48015761307515   -3.44749279887444   -0.79134472922968
H        -1.00738737765657   -4.74207893472473   -2.31743642592327
H        -4.15514739833169   -2.02696162037391   -1.30964478707821
C        -2.61080743814161   -0.51412002917745    0.43595792154434
N        -1.61762624002997    0.06539113772507    1.14786406489644
C        -1.89657744566833    1.13691008877004    1.89470982184316
C        -3.16330508268752    1.68629007569343    1.98259452155599
C        -4.19524619820875    1.10233106284757    1.25592007340569
C        -3.91396284536924   -0.00396834210153    0.47584018872702
H        -4.70546506249489   -0.46712256472706   -0.09327592212841
H        -3.33833536466906    2.54954350236814    2.60933053973825
H        -1.05371777530349    1.55502532936776    2.42401281423300
Ir        0.42150000000000   -0.81650000000000    0.91330000000000
H         0.87260000000000   -2.23030000000000    1.54050000000000
B         0.49008035876687    0.42580035686059   -0.78948603627114
O         0.17529753764582   -0.03392657214343   -2.06221294601135
C         0.01043788715835    1.09724178301674   -2.94332518728910
C         0.48946387937174    0.74742992837560   -4.34821124861444
H         1.50844165316214    0.37066566651322   -4.32685430609021
H         0.44458683153387    1.62282448722680   -4.99682497638522
H        -0.14932665312742   -0.02864391388685   -4.76847721096878
C        -1.49373141404515    1.39943400978720   -2.96987354334666
H        -1.73230033715094    2.21229524204415   -3.65415893094152
H        -2.02366276531092    0.50213821347633   -3.28958856402734
H        -1.84045388901326    1.65420628089651   -1.96822732219084
C         0.83173439378802    2.20760120726842   -2.21267204199061
O         0.75516750084752    1.78185989250306   -0.83548221801786
C         2.31423110522883    2.19127304112941   -2.60020589663551
H         2.71839729807673    1.19214359922673   -2.44993742092610
H         2.46591968158813    2.51240211662292   -3.63008677386057
H         2.85648806223119    2.86606554546207   -1.93881517518289
C         0.28013203161153    3.62357194592737   -2.33997497942771
H        -0.72310355153328    3.69231793133674   -1.92745334482453
H         0.91974518104287    4.30721197227863   -1.78321789522364
H         0.26234244032237    3.93591553551717   -3.38426242344661
B         1.56331982941371    0.61842943579115    1.85444047840702
O         2.92465905355460    0.56732455210230    2.13427189053379
C         3.36297837143031    1.88788617727370    2.50886175950127
C         4.53273561500148    1.78935459855562    3.47972144172908
H         4.28029294844535    1.16080600347052    4.32964054402183
H         5.38787077803964    1.34522553300030    2.97190378233045
H         4.81544425030230    2.77950129097580    3.83625561089910
C         3.79924647248927    2.57535817009498    1.21078558780667
H         4.20061502527703    3.57102194893926    1.39494374861703
H         4.56315798762722    1.96362029206465    0.73378087841793
H         2.95097616945423    2.62753218702260    0.52958016311440
C         2.05285824526570    2.50555802383907    3.08941480317745
O         1.04024235547775    1.81073616341364    2.33544200352121
C         1.89410541303612    4.00772989743508    2.88940632801487
H         1.86848157600569    4.25140194853385    1.83111858510368
H         0.95654480189364    4.33645634722540    3.33605068790036
H         2.71466998293211    4.54389899902393    3.36560927232202
C         1.83203169482640    2.14084780883691    4.56157916316893
H         1.93320939460008    1.06504904865360    4.69900939101884
H         2.53325660951905    2.66236530089662    5.21072865204808
H         0.81743132474718    2.41890359872822    4.84589043866936
B         2.27820000000000   -1.33090000000000    0.17410000000000
O         2.90156066028810   -2.56179221545756    0.38995025285529
C         4.26586398279893   -2.48319150286995   -0.07826175488441
C         5.11027886460223   -2.05839361325434    1.12753966223829
H         4.75358811556141   -1.09840055350722    1.49836596718954
H         4.97842593101875   -2.79368889447234    1.92044040359712
H         6.16806562848544   -1.99812282795647    0.87565101960759
C         4.72076660452075   -3.84523939395246   -0.58821701614666
H         4.75026823710509   -4.54949949810599    0.24190261188785
H         5.71851716672059   -3.77359164491450   -1.02052369818608
H         4.03495438793241   -4.23275530333978   -1.33681450980578
C         4.16643832103970   -1.36000819576325   -1.15808656513627
O         3.07431066512747   -0.56350726368015   -0.66221777912934
C         5.40967312482041   -0.49169082819516   -1.31585285566620
H         6.26589633361619   -1.09746996029218   -1.61156457460553
H         5.23120011076779    0.25942773758226   -2.08416211980960
H         5.63721873412040    0.02285378511222   -0.38676831281192
C         3.72961475009012   -1.89928051865780   -2.52622733818778
H         2.83755105165450   -2.51471176704453   -2.41746348821628
H         3.47212479687507   -1.05776978270552   -3.16807557793818
H         4.51968496790530   -2.47638011976869   -3.00396369261681
H        -3.38350145589123   -3.98839126284349   -2.57932827391976
H        -5.19930011703049    1.50364108698091    1.29642550825215
C         0.23590000000000   -1.68140000000000    2.96030000000000
C        -0.97871579656679   -2.20751502904974    3.39384345490213
C         1.29275549298899   -1.69912792529474    3.87644711647692
C        -1.13255143960210   -2.71114616696638    4.67838389771858
H        -1.82551325193318   -2.26199441085026    2.72079801819459
C         1.14267392731183   -2.20349847717634    5.15450189116469
H         2.26388431153766   -1.34867459718495    3.55808631880494
C        -0.06952320356846   -2.74584531136002    5.57079618594706
H        -2.08791271964644   -3.12752494237848    4.97284173392787
H         1.99167358755135   -2.22624184805520    5.82579607028046
C        -0.18010196554067   -3.39687290407745    6.91809033050062
H         0.56105387796923   -4.19185384432319    7.00735045118204
H        -1.16795806824385   -3.82716631877337    7.06740216384262
H         0.01223021625630   -2.67621261509825    7.71260234146263
99
 energy: -139.590822313395 gnorm: 0.037251087173 xtb: 6.4.0 (f63f532)
N        -0.95128080763787   -2.09101073386071   -0.25978954737705
C        -2.22899613802079   -1.68383049577447   -0.36655119042397
C        -3.12920308601839   -2.35528681498076   -1.20279563998344
C        -2.70722909648884   -3.45344639140521   -1.91939944306204
C        -1.38667210809541   -3.87191985491423   -1.78432818301133
C        -0.55655509050866   -3.15731360266466   -0.94840690663296
H         0.47593614427534   -3.44127430668656   -0.80708479358340
H        -1.01618912693556   -4.73177150167539   -2.31775534416808
H        -4.14891467331617   -2.02157636958574   -1.29777196798102
C        -2.59653592733473   -0.51758083737846    0.42988890016611
N        -1.60579346892997    0.05669237819038    1.14392069085251
C        -1.89163013976558    1.12253297477310    1.88641399043833
C        -3.15376320628718    1.67282263956844    1.97630810946136
C        -4.18634472065613    1.08976523780503    1.24957669676707
C        -3.90054329134390   -0.00958388146224    0.46930292701401
H        -4.68936687456569   -0.47439587291624   -0.09783380518752
H        -3.32953816231079    2.53184671236174    2.60312342354908
H        -1.05418955079453    1.54568677036756    2.41711793333627
Ir        0.42150000000000   -0.81650000000000    0.91330000000000
H         0.87260000000000   -2.23030000000000    1.54050000000000
B         0.49354471438466    0.43785712787426   -0.76676926056257
O         0.15542990339527   -0.02260970894139   -2.03207789162721
C         0.00518244480802    1.09571981698986   -2.92319523877507
C         0.48913000122584    0.74041749498930   -4.32544125487068
H         1.50441070387398    0.35995024689438   -4.30497735205279
H         0.44446428380690    1.61878075872886   -4.96450339247532
H        -0.15362346955401   -0.02963880383928   -4.74417648191522
C        -1.49733148187691    1.40719814283500   -2.96932290699317
H        -1.71769916836039    2.21619668574714   -3.65937259879161
H        -2.02652675343497    0.51216182140786   -3.28987634924443
H        -1.84680747663725    1.66546273853200   -1.97179867224365
C         0.82334697356981    2.20883927563725   -2.19997115838034
O         0.75841842022484    1.78824617348017   -0.82749612567613
C         2.30331268146219    2.19756958594410   -2.59793543820475
H         2.70473150387400    1.20009674902622   -2.44043393142243
H         2.44177787053305    2.51092975312819   -3.62889536030910
H         2.84554296936437    2.87714362442122   -1.94504464702794
C         0.26888924388388    3.62321540253659   -2.33691851058994
H        -0.73017282036745    3.69765526333208   -1.92073593821731
H         0.91358071492003    4.30580275472453   -1.78982882669060
H         0.25138011617536    3.91878512758629   -3.38264302693045
B         1.56474571949783    0.62625678481632    1.86054394993553
O         2.92284351160433    0.57974958966105    2.12094156156251
C         3.36157918055797    1.89025984943836    2.51048915847910
C         4.52951171306299    1.78976300269115    3.48428428447205
H         4.28002782810443    1.15612504223733    4.32834360509755
H         5.38239547263981    1.35311463240070    2.97192519458588
H         4.80244049457982    2.77920921960696    3.83986114135600
C         3.80292517877377    2.58955271991639    1.22068912315598
H         4.20091931327556    3.58120145602561    1.41334391200539
H         4.56609898708159    1.98065390180202    0.74353006295375
H         2.95340902934199    2.63651015306879    0.54373566474278
C         2.05357674081354    2.50648940234536    3.09080288053795
O         1.04225976065074    1.80564679206295    2.35011374768677
C         1.89640538147481    4.00870107199795    2.88962329631161
H         1.86276918303577    4.25123067827780    1.83346403227702
H         0.96387202721447    4.33346528507001    3.34283906844774
H         2.72069115385121    4.53600335146000    3.36124371461081
C         1.84281982716554    2.14954544594010    4.56714533357101
H         1.94584923153944    1.07522725534553    4.69876053922369
H         2.54673779086483    2.67447472180428    5.20509912361599
H         0.83032065498866    2.42476412783498    4.85279436074884
B         2.27819999999999   -1.33089999999999    0.17410000000001
O         2.90445047847371   -2.54975857545543    0.39787300022772
C         4.25920695365501   -2.48087534121035   -0.07961416190009
C         5.11449503766617   -2.05972607763040    1.11942095624834
H         4.75271806156610   -1.10267891037738    1.48723483444396
H         4.98346280935611   -2.79362999567425    1.91014365527618
H         6.16660043619598   -2.00027295572554    0.85856863713781
C         4.71335870918784   -3.84248714458216   -0.59269942867244
H         4.74554635633427   -4.54032470839627    0.23891193577040
H         5.70698394497694   -3.76151566869141   -1.02415057332776
H         4.02739814686918   -4.23176463456779   -1.33674372021668
C         4.16181978516138   -1.35945158097712   -1.15725008229830
O         3.06238355986805   -0.57263497479465   -0.67106427726529
C         5.40641013296022   -0.49250545889691   -1.31077329293508
H         6.25502769173786   -1.10548805434693   -1.60086490381246
H         5.22937359008667    0.25190255142317   -2.08202416029172
H         5.63051260401461    0.02431694934685   -0.38482262374925
C         3.73994169600383   -1.90231128020886   -2.52931644715829
H         2.84902810754670   -2.51525179991408   -2.41985734364114
H         3.48604803462847   -1.06265714621690   -3.17161254316583
H         4.53643381850190   -2.47492941968715   -2.99413014602658
H        -3.38836857318895   -3.97905483531175   -2.57052289312569
H        -5.18912074326204    1.48670337217235    1.29388853135793
C         0.23590000000001   -1.68139999999999    2.96030000000000
C        -0.98012908230572   -2.20523058497563    3.39205789919648
C         1.29024720956539   -1.69545107316207    3.88090887556580
C        -1.13757995375283   -2.70442941943547    4.67737423820137
H        -1.82481590112996   -2.26128672928034    2.71719578825273
C         1.13529708414124   -2.19579620254813    5.15816470561266
H         2.26088743679711   -1.34473200296301    3.56433530629244
C        -0.07805519428810   -2.73682664903522    5.57170507104155
H        -2.09360386685844   -3.11909825004302    4.97012774115030
H         1.98107886291990   -2.21617463606894    5.83261001116460
C        -0.19259318960665   -3.38497242774656    6.92043828026771
H         0.54730539941038   -4.18003832882175    7.01212718936263
H        -1.18059229755842   -3.81323787293550    7.06762176933101
H        -0.00111889010519   -2.66282475051250    7.71285084719414
99
 energy: -139.591445966536 gnorm: 0.036573991527 xtb: 6.4.0 (f63f532)
N        -0.94045337470001   -2.08780540196769   -0.27065223360975
C        -2.21941248851780   -1.68124319755788   -0.37089420761366
C        -3.12502675687835   -2.35313661754740   -1.20232323221910
C        -2.70894804102690   -3.45114391052405   -1.92083740338173
C        -1.38614907988958   -3.86909673349862   -1.79298955682087
C        -0.55170856573068   -3.15318700578317   -0.96250323092838
H         0.48099694077060   -3.44067267255238   -0.82731152856713
H        -1.01991836637433   -4.72959611587546   -2.32715582583867
H        -4.14486550811649   -2.01819148938576   -1.29005631214958
C        -2.58498425937028   -0.51933554255807    0.42601719283917
N        -1.59474232734460    0.05432805396233    1.14205934785891
C        -1.88428409618741    1.11868271384994    1.88424214031819
C        -3.14666778330491    1.66688120468827    1.97599429771811
C        -4.17986078968257    1.08268792378303    1.24819632412979
C        -3.89049961452874   -0.01304411412501    0.46588870073587
H        -4.67662192591879   -0.47844805820051   -0.10415427310107
H        -3.32396651411124    2.52325010886321    2.60479689493848
H        -1.05037247750507    1.54309335612926    2.42004067284454
Ir        0.42150000000000   -0.81650000000000    0.91330000000000
H         0.87260000000000   -2.23030000000000    1.54050000000000
B         0.47934648319934    0.45369243639711   -0.74697633800063
O         0.13309974859694   -0.01232892482541   -2.00793969839831
C        -0.00454869202900    1.09738457941562   -2.90579117217755
C         0.48663814197897    0.73177760712552   -4.30375815009160
H         1.49938753371285    0.34548112439463   -4.27701798585899
H         0.44911321918820    1.60982391123420   -4.94298620231890
H        -0.15917860235449   -0.03548087098181   -4.72236335777755
C        -1.50592486984133    1.41695103512666   -2.96819846345295
H        -1.71172211710500    2.22376727373080   -3.66459570789200
H        -2.03591049008283    0.52325684895845   -3.29038271472026
H        -1.86361386405401    1.68166695241474   -1.97547127544926
C         0.81437656713568    2.21306169163160   -2.18702690883410
O         0.75811377846526    1.79921116025065   -0.81557781778161
C         2.29282229112513    2.20359216887613   -2.59428762755045
H         2.69659981876995    1.20818227417428   -2.43047969949912
H         2.42203235055967    2.50887779854644   -3.62841492807202
H         2.83617215485732    2.89048973350945   -1.95032558982745
C         0.25822497356594    3.62701826187614   -2.33169742626430
H        -0.73858086420638    3.70516404345124   -1.91129983687306
H         0.90650672483041    4.31406104441788   -1.79473204124864
H         0.23587225523156    3.91008662099580   -3.38047735990938
B         1.56521586430640    0.63028173190465    1.86493421202088
O         2.92373731356803    0.58783833813581    2.10915144637893
C         3.36133933109411    1.89285122446226    2.51093765419293
C         4.52851807597323    1.78839434049588    3.48684868602193
H         4.28039457951737    1.14814869255952    4.32607458990780
H         5.38356505439295    1.35920495077467    2.97212406889051
H         4.79481190305835    2.77714863430818    3.84838077931586
C         3.80672734343052    2.60429306584166    1.22805216811497
H         4.20082254908817    3.59486473732634    1.43103537404171
H         4.57345466953147    2.00089243180826    0.74980301618796
H         2.95890210255775    2.65321564334387    0.54955152721873
C         2.05390589564865    2.50705022754023    3.09481618470092
O         1.04126605134983    1.80110383554388    2.36468326273100
C         1.89521020906220    4.00973045322993    2.89135267568216
H         1.85321051349856    4.25096056760974    1.83527074544345
H         0.96706095468196    4.33554959805791    3.35236867196801
H         2.72475233053569    4.53458722224786    3.35566260162461
C         1.85337511443856    2.15695654204873    4.57532493357802
H         1.95919824467188    1.08346672761048    4.70918113362663
H         2.56120667742203    2.68656325280624    5.20421799526417
H         0.84235557314194    2.43181137261110    4.86552998139523
B         2.27819999999998   -1.33089999999998    0.17410000000001
O         2.90669434746182   -2.54334397352342    0.40656202660615
C         4.25504959784746   -2.47938903133170   -0.08004327375039
C         5.12019823549711   -2.05973709742078    1.11359406483762
H         4.75968893821179   -1.10303500441428    1.48301217451105
H         4.99315416827748   -2.79422967799734    1.90404586713935
H         6.16959866802049   -2.00089602443865    0.84441057312283
C         4.70572200583719   -3.84250416290094   -0.59509395006229
H         4.74208621353593   -4.53887717125114    0.23723719190012
H         5.69688065810537   -3.75836041005520   -1.03052294966703
H         4.01681859608585   -4.23244544103834   -1.33581975851224
C         4.15769864480245   -1.35911335113078   -1.15880735111585
O         3.05285476240653   -0.57742895271860   -0.68105492077750
C         5.40231064072919   -0.49020561748706   -1.30730468578888
H         6.25054763452643   -1.10667758925603   -1.58994955157237
H         5.22931286546002    0.25042434653762   -2.08279771621957
H         5.62140899573363    0.02983023468021   -0.38220183105201
C         3.74874256129987   -1.90533614953233   -2.53452111926973
H         2.85853478698056   -2.51971175431845   -2.43075273317054
H         3.49990648450396   -1.06695251939574   -3.18018995989401
H         4.55181905705053   -2.47634379095168   -2.98877493879737
H        -3.39370562510835   -3.97656014338565   -2.56784505911848
H        -5.18336209738436    1.47653748094549    1.29407108434592
C         0.23590000000001   -1.68139999999997    2.96030000000000
C        -0.98188672962540   -2.20281771459506    3.38913677828029
C         1.28702295521920   -1.69103625677499    3.88507885334761
C        -1.14465145597471   -2.69662985670855    4.67606661407810
H        -1.82399330913641   -2.26123278750290    2.71126489121714
C         1.12665619485568   -2.18622886443002    5.16339664679755
H         2.25822038187784   -1.34049145799657    3.57024008322517
C        -0.08864986940809   -2.72576753636920    5.57414594025762
H        -2.10219878390254   -3.10923649628816    4.96669053793626
H         1.96920524334642   -2.20353193081502    5.84197905832831
C        -0.20832051216261   -3.36951441337842    6.92471581829012
H         0.53014018331203   -4.16536257309314    7.02045454780991
H        -1.19747492557625   -3.79567910903993    7.06964626685786
H        -0.01808850673285   -2.64507023586770    7.71520509515478
99
 energy: -139.592193179600 gnorm: 0.036815362891 xtb: 6.4.0 (f63f532)
N        -0.92509052655829   -2.08745382390155   -0.28510597451364
C        -2.20605213718259   -1.68057113471436   -0.37709917078346
C        -3.11778654608677   -2.35260787482837   -1.20378604199434
C        -2.70849286038092   -3.45007998459763   -1.92615446501055
C        -1.38248376908490   -3.86663297781364   -1.80954845728508
C        -0.54176277938710   -3.15040799122909   -0.98454600928762
H         0.49312122535407   -3.43858915562441   -0.86201308025626
H        -1.02094091413759   -4.72672239394354   -2.34783043438301
H        -4.13836761304897   -2.01628636918940   -1.28126601439978
C        -2.56945873086291   -0.52249475330607    0.42226003851861
N        -1.58010312440928    0.04830711435029    1.14507176880395
C        -1.87332183736394    1.11219043762476    1.88850940598159
C        -3.13618971489482    1.65915465555350    1.97951965882588
C        -4.16932681375136    1.07567743926882    1.24757275357891
C        -3.87576342954123   -0.01506153140237    0.46080087061429
H        -4.65839428907680   -0.47996638928596   -0.11494864767286
H        -3.31530662551825    2.51289142393018    2.61130031125173
H        -1.04265776493990    1.53932533341704    2.42833739232635
Ir        0.42150000000000   -0.81650000000000    0.91330000000000
H         0.87260000000000   -2.23030000000000    1.54050000000000
B         0.47621365421579    0.47473503261668   -0.72118124726896
O         0.09835430502121    0.00481334754105   -1.97234439193307
C        -0.02364755991713    1.10318349673476   -2.87868806922059
C         0.47867012210239    0.71688240213374   -4.26860083735699
H         1.48663282301477    0.31808167819488   -4.22597455652329
H         0.45854775698780    1.59000555369167   -4.91600940532536
H        -0.17207374986406   -0.04729382264191   -4.68598998357290
C        -1.52272553663830    1.43596672363598   -2.96512953120882
H        -1.70860968803043    2.23911145697021   -3.67175162693412
H        -2.05542505684581    0.54435545041898   -3.28921277795492
H        -1.89537976243825    1.71270496303344   -1.98068466555384
C         0.80023512076159    2.22330522273055   -2.16846635111790
O         0.75868603661059    1.81699894041081   -0.79754454483205
C         2.27659591561199    2.21669117483982   -2.58829155475420
H         2.68701516972133    1.22550445294656   -2.41323237652597
H         2.39349289750410    2.50745541186588   -3.62821550505647
H         2.82136442469036    2.91701174006856   -1.95934839272116
C         0.23889453330613    3.63576463295687   -2.32182245119873
H        -0.75382881022549    3.71790515574033   -1.89162071306508
H         0.89240926290930    4.33220050679475   -1.80232918895013
H         0.20381720876882    3.90314676576974   -3.37486598669748
B         1.56612566769476    0.63580682351241    1.86880124673348
O         2.92700173987368    0.60100218199428    2.08988866194718
C         3.36279802969899    1.89896626622814    2.51108128117845
C         4.52867648842965    1.78449648589923    3.48964882368189
H         4.28203943080699    1.13065818816739    4.31942591109589