95
 energy: -144.796294046024 gnorm: 0.077857560765 xtb: 6.4.1 (1a32961)
N        -0.96510000000000   -2.11530000000000   -0.24090000000000
C        -2.24700000000000   -1.69840000000000   -0.36220000000000
C        -3.14040000000000   -2.36820000000000   -1.21200000000000
C        -2.70220000000000   -3.47560000000000   -1.93050000000000
C        -1.37780000000000   -3.89880000000000   -1.78760000000000
C        -0.54290000000000   -3.18670000000000   -0.93510000000000
H         0.49810000000000   -3.45630000000000   -0.78940000000000
H        -0.99570000000000   -4.76030000000000   -2.32770000000000
H        -4.16500000000000   -2.02890000000000   -1.31830000000000
C        -2.62130000000000   -0.50950000000000    0.44100000000000
N        -1.62600000000000    0.07330000000000    1.16020000000000
C        -1.89680000000000    1.15240000000000    1.91690000000000
C        -3.17230000000000    1.70330000000000    1.99650000000000
C        -4.20510000000000    1.11740000000000    1.26270000000000
C        -3.92610000000000    0.00250000000000    0.47820000000000
H        -4.71960000000000   -0.46420000000000   -0.09520000000000
H        -3.34630000000000    2.57510000000000    2.62070000000000
H        -1.04450000000000    1.57420000000000    2.43690000000000
Ir        0.42150000000000   -0.81650000000000    0.91330000000000
H         0.87260000000000   -2.23030000000000    1.54050000000000
B         0.50670000000000    0.41560000000000   -0.81540000000000
O         0.19500000000000   -0.04700000000000   -2.09150000000000
C         0.00650000000000    1.10040000000000   -2.95430000000000
C         0.49020000000000    0.74740000000000   -4.35780000000000
H         1.51610000000000    0.37380000000000   -4.33700000000000
H         0.44730000000000    1.62240000000000   -5.01670000000000
H        -0.14740000000000   -0.03390000000000   -4.78430000000000
C        -1.50120000000000    1.39560000000000   -2.96670000000000
H        -1.75370000000000    2.21460000000000   -3.64850000000000
H        -2.03200000000000    0.49450000000000   -3.28930000000000
H        -1.85170000000000    1.65210000000000   -1.96220000000000
C         0.84230000000000    2.20670000000000   -2.22040000000000
O         0.75200000000000    1.78260000000000   -0.83690000000000
C         2.32930000000000    2.18620000000000   -2.59900000000000
H         2.74130000000000    1.18500000000000   -2.45750000000000
H         2.48870000000000    2.51300000000000   -3.63180000000000
H         2.87200000000000    2.86270000000000   -1.93200000000000
C         0.28440000000000    3.62290000000000   -2.33660000000000
H        -0.72650000000000    3.69040000000000   -1.92910000000000
H         0.92130000000000    4.31480000000000   -1.77610000000000
H         0.26430000000000    3.94810000000000   -3.38320000000000
B         1.56300000000000    0.60960000000000    1.84840000000000
O         2.92780000000000    0.55230000000000    2.15020000000000
C         3.36330000000000    1.88660000000000    2.50260000000000
C         4.53140000000000    1.78590000000000    3.47740000000000
H         4.27910000000000    1.16090000000000    4.33690000000000
H         5.39390000000000    1.33790000000000    2.97340000000000
H         4.82390000000000    2.77870000000000    3.83820000000000
C         3.79700000000000    2.56850000000000    1.19670000000000
H         4.20020000000000    3.57090000000000    1.37680000000000
H         4.56740000000000    1.95560000000000    0.72110000000000
H         2.95240000000000    2.63260000000000    0.50540000000000
C         2.05040000000000    2.50090000000000    3.09320000000000
O         1.03750000000000    1.81620000000000    2.31910000000000
C         1.89100000000000    4.00450000000000    2.88650000000000
H         1.87290000000000    4.25440000000000    1.82410000000000
H         0.94940000000000    4.34260000000000    3.33170000000000
H         2.71080000000000    4.55150000000000    3.36630000000000
C         1.82470000000000    2.13200000000000    4.56520000000000
H         1.92610000000000    1.05330000000000    4.71320000000000
H         2.52610000000000    2.65280000000000    5.22540000000000
H         0.80630000000000    2.41580000000000    4.84900000000000
B         2.27820000000000   -1.33090000000000    0.17410000000000
O         2.89460000000000   -2.57740000000000    0.38450000000000
C         4.26930000000000   -2.48200000000000   -0.07210000000000
C         5.10900000000000   -2.05380000000000    1.14010000000000
H         4.76350000000000   -1.08740000000000    1.51750000000000
H         4.98050000000000   -2.79470000000000    1.93590000000000
H         6.17420000000000   -1.99290000000000    0.89300000000000
C         4.71950000000000   -3.84660000000000   -0.58470000000000
H         4.75280000000000   -4.56130000000000    0.24420000000000
H         5.72330000000000   -3.78370000000000   -1.02010000000000
H         4.03500000000000   -4.23600000000000   -1.34170000000000
C         4.16440000000000   -1.36220000000000   -1.16300000000000
O         3.08520000000000   -0.55030000000000   -0.65400000000000
C         5.40720000000000   -0.48870000000000   -1.31550000000000
H         6.27320000000000   -1.09010000000000   -1.61530000000000
H         5.23300000000000    0.26930000000000   -2.08590000000000
H         5.64270000000000    0.02650000000000   -0.38240000000000
C         3.71800000000000   -1.89830000000000   -2.53110000000000
H         2.82530000000000   -2.52160000000000   -2.42740000000000
H         3.46090000000000   -1.05250000000000   -3.17550000000000
H         4.50570000000000   -2.48290000000000   -3.01790000000000
H        -3.38500000000000   -4.00130000000000   -2.59310000000000
H        -5.21400000000000    1.52080000000000    1.29960000000000
C         0.23590000000000   -1.68140000000000    2.96030000000000
C        -0.99930854305598   -2.10266764727238    3.45551139482590
C         1.31544352915573   -1.82926902806076    3.83623157381203
C        -1.10360609712031   -2.60777988434727    4.74692828972331
H        -1.89714135215605   -2.06270565030044    2.85250542683518
N         1.23760936169254   -2.33273149758085    5.06342803147573
H         2.31664664154852   -1.55999173842251    3.52223594721420
Cl       -2.62903704098128   -3.12331268093111    5.36892651143253
C         0.05155000430974   -2.73088037602195    5.50866845648929
Cl        0.02951444460702   -3.45858703255030    7.07112116675172
95
 energy: -144.802912965061 gnorm: 0.047487112863 xtb: 6.4.1 (1a32961)
N        -0.96280564347784   -2.10287416954361   -0.25067927278812
C        -2.23926091973751   -1.69107351935496   -0.36464767392486
C        -3.13413751680002   -2.36173676408038   -1.20652237229242
C        -2.70391757962461   -3.46375478969417   -1.92245173785212
C        -1.38481604967972   -3.88281664580267   -1.78378896071213
C        -0.55430754114640   -3.16922405567660   -0.94082685790132
H         0.47950630812944   -3.44862640582203   -0.79165754886855
H        -1.00859261649037   -4.74266208394751   -2.31907603249119
H        -4.15445219742930   -2.02619425293402   -1.31036443320491
C        -2.61105077969980   -0.51229975228107    0.43556679052340
N        -1.61961123923578    0.07020358543459    1.14466980906479
C        -1.89740449183312    1.13941710958326    1.89365076092896
C        -3.16551022036074    1.68694170533493    1.98384792880275
C        -4.19588530849212    1.10263605166430    1.25738636986210
C        -3.91429605013864   -0.00428845288497    0.47679059300298
H        -4.70558711159831   -0.46807789381163   -0.09156995590454
H        -3.34044434900758    2.54996249051886    2.61052952516903
H        -1.05368931026158    1.55816081333840    2.42144443516978
Ir        0.42150000000000   -0.81650000000000    0.91330000000000
H         0.87260000000000   -2.23030000000000    1.54050000000000
B         0.49400717601299    0.41971218907268   -0.79371993713255
O         0.17497316461634   -0.03714915088153   -2.06486627022809
C         0.00997091408227    1.09646915062012   -2.94388990462173
C         0.48927040023256    0.74785346548804   -4.34875166939078
H         1.50820086488239    0.37134376727662   -4.32732953616969
H         0.44433577855300    1.62364257236393   -4.99648951222810
H        -0.14944229490723   -0.02780161762765   -4.76946702596351
C        -1.49403602665266    1.39900476370216   -2.96924421142124
H        -1.73214218861610    2.21218537121214   -3.65301257160127
H        -2.02397150521585    0.50224053426587   -3.28984453289328
H        -1.84024787749044    1.65374184604230   -1.96750621945086
C         0.83185032203627    2.20565889156264   -2.21130366745744
O         0.75589579047746    1.77528926022670   -0.83451626456596
C         2.31421969276973    2.19057925579599   -2.59896177409489
H         2.71906849047090    1.19170804053136   -2.44979297441866
H         2.46507878114082    2.51295343913393   -3.62838319766749
H         2.85605349362548    2.86542332112433   -1.93750070093475
C         0.27998380600083    3.62182585975321   -2.33721111453258
H        -0.72332869520489    3.69103376123493   -1.92527400328490
H         0.91958434090093    4.30552384713913   -1.78074865307154
H         0.26246177083908    3.93479911858579   -3.38119404532841
B         1.56639168911929    0.61798469466642    1.85500120214802
O         2.92485070646551    0.56366982131945    2.13647817731391
C         3.36346409723073    1.88551464104494    2.50996486765030
C         4.53283442397777    1.78766711566922    3.48080275895930
H         4.28101125673403    1.15896764690862    4.33082100867965
H         5.38796172178634    1.34411138707242    2.97277202580608
H         4.81514060797075    2.77803119263406    3.83681429297033
C         3.79851846460279    2.57310601539121    1.21139241978562
H         4.19990247686735    3.56848367039441    1.39621965121841
H         4.56275239397402    1.96197558592927    0.73451775608928
H         2.95038889065936    2.62599695398730    0.53008160769491
C         2.05313578858957    2.50368849299264    3.09008440391622
O         1.04024308627139    1.80717831233432    2.33655571101326
C         1.89337233461143    4.00569764844731    2.88946700384574
H         1.86805477386035    4.24949081717337    1.83125728756974
H         0.95622024497194    4.33482209005648    3.33657684573393
H         2.71375936620952    4.54169072627823    3.36580168477694
C         1.83201494257867    2.13878885309370    4.56215919556093
H         1.93578984077042    1.06322240338900    4.70223732488970
H         2.53265251033103    2.66078303357169    5.21102014632569
H         0.81761393846767    2.41733957501989    4.84727465334381
B         2.27820000000000   -1.33090000000000    0.17410000000000
O         2.89988695908161   -2.56071271942787    0.39254698243283
C         4.26487547551872   -2.48307124248951   -0.07740477424605
C         5.10979450718195   -2.05832266289229    1.12799310915755
H         4.75453140089905   -1.09806230671482    1.49940321168519
H         4.97932030587694   -2.79368556855674    1.92106785592348
H         6.16722301346142   -1.99861706000030    0.87532700986000
C         4.71942381461069   -3.84490076329139   -0.58809586737935
H         4.74985960100021   -4.54947145562260    0.24163707657977
H         5.71708837925678   -3.77284666705127   -1.02025384383481
H         4.03405189740143   -4.23238144794105   -1.33704276902636
C         4.16556401197469   -1.36011463010540   -1.15793225700645
O         3.07206719472835   -0.56399502561847   -0.66218835352970
C         5.40842756529068   -0.49126450923413   -1.31536415436389
H         6.26460500889355   -1.09679796696243   -1.61120335756930
H         5.23003850138833    0.25967664906747   -2.08370551862987
H         5.63644465004780    0.02303266513255   -0.38636631347442
C         3.72871178475707   -1.89874264593378   -2.52618899718957
H         2.83696735395002   -2.51452233487643   -2.41804922131425
H         3.47176699505347   -1.05698362952204   -3.16767804593255
H         4.51919256241867   -2.47523403488461   -3.00361484214550
H        -3.38345915541363   -3.98829591954629   -2.58009272827456
H        -5.19981565898546    1.50350174119633    1.29775198302278
C         0.23590000000000   -1.68140000000000    2.96030000000001
C        -1.00102266045986   -2.10362843600233    3.45214148743985
C         1.31169836153036   -1.82014000999582    3.84799358895138
C        -1.10723095967408   -2.60218178700842    4.74455992773085
H        -1.89505989273235   -2.06941025097528    2.84669536229129
N         1.22585828300427   -2.31578526060911    5.07201402279949
H         2.31206297050363   -1.54665063046824    3.54022762258705
Cl       -2.63378057665019   -3.12302006615025    5.36395901734615
C         0.04576415043176   -2.71575833887888    5.51048095712636
Cl        0.01895664738265   -3.43706472913504    7.07713373944520
95
 energy: -144.804768737224 gnorm: 0.037622441719 xtb: 6.4.1 (1a32961)
N        -0.95695659872215   -2.09782746114576   -0.25830230386900
C        -2.22991454569232   -1.68578214552967   -0.36797606525869
C        -3.13009319080553   -2.35378701941897   -1.20481690644294
C        -2.70820277037796   -3.45377900011361   -1.92160438248259
C        -1.39017503377719   -3.87367074041788   -1.78709562214303
C        -0.55951306177224   -3.16120599863763   -0.94778424448499
H         0.47278144533440   -3.44465554146681   -0.80601379137157
H        -1.01958392824440   -4.73263794567704   -2.32120370875156
H        -4.14883202051600   -2.01896213454351   -1.30117838904688
C        -2.59840534585546   -0.51450856115051    0.42934946208408
N        -1.61036003156238    0.06550013802542    1.13737540929166
C        -1.89357724984558    1.12820585478562    1.88241553783361
C        -3.15862872739558    1.67451759432125    1.97756783869840
C        -4.18881598439460    1.08959873211182    1.25271155889551
C        -3.90273977091898   -0.01111546098766    0.47166426150938
H        -4.69187431494948   -0.47758987276613   -0.09278274898218
H        -3.33454558188915    2.53236444225426    2.60544196222559
H        -1.05446780803554    1.55317014347884    2.40938841520826
Ir        0.42150000000000   -0.81650000000000    0.91330000000000
H         0.87260000000000   -2.23030000000000    1.54050000000000
B         0.49468182338749    0.42587957352349   -0.77442869376436
O         0.15404668955068   -0.02962297326882   -2.03783403263879
C         0.00417525510289    1.09348687625493   -2.92511290992522
C         0.48872625602655    0.74159120730796   -4.32754091042213
H         1.50395523695405    0.36166129662618   -4.30694401634547
H         0.44390376891354    1.62107964581041   -4.96457841229630
H        -0.15368539705652   -0.02764510220881   -4.74759372266674
C        -1.49794815861376    1.40567588217968   -2.96885600842526
H        -1.71761101561933    2.21578892842171   -3.65736117985235
H        -2.02748399984208    0.51178163460441   -3.29098028701836
H        -1.84600997929314    1.66312960157480   -1.97084274787120
C         0.82329323739674    2.20364789382904   -2.19726433332414
O         0.75941885016228    1.77433493477212   -0.82568300308289
C         2.30300161532586    2.19511689126085   -2.59527471648328
H         2.70586771284155    1.19814925972087   -2.44013292489294
H         2.44002635164303    2.51137681329782   -3.62524734117076
H         2.84415642856153    2.87449352653537   -1.94164698519271
C         0.26861849678898    3.61843958184599   -2.32957602287634
H        -0.73045717681535    3.69325329204601   -1.91402429455290
H         0.91357004625468    4.30034138451144   -1.78229004690860
H         0.25148254440786    3.91570824625750   -3.37462727618092
B         1.57019782561063    0.62299533903273    1.86391273098104
O         2.92334483156292    0.57225517090457    2.12471157262743
C         3.36246610801296    1.88495773447535    2.51350492561669
C         4.53020112995432    1.78559671224303    3.48663892356751
H         4.28200955950392    1.15148040545993    4.33072192571225
H         5.38321290662590    1.35015580659166    2.97386805776669
H         4.80214952832988    2.77531851954939    3.84178001766668
C         3.80174300529949    2.58361417374821    1.22263237534612
H         4.19957233109907    3.57489242530620    1.41624520583055
H         4.56520638803348    1.97560869420725    0.74538052041980
H         2.95199953272789    2.63117905222050    0.54612049174607
C         2.05395734392734    2.50114903310239    3.09330056196389
O         1.04249237239085    1.79719644409720    2.35260716547474
C         1.89506958128497    4.00284450935205    2.89041756710401
H         1.86161741643119    4.24500203039814    1.83428822617135
H         0.96299653586396    4.32792627041900    3.34413632931982
H         2.71896329964765    4.53036085501620    3.36198290866517
C         1.84327485324308    2.14505500064617    4.56970281017547
H         1.95106586477842    1.07128480802491    4.70572693896129
H         2.54597994054612    2.67181124923381    5.20698622571765
H         0.83076489005185    2.41986568846381    4.85620184503247
B         2.27820000000000   -1.33090000000000    0.17410000000000
O         2.90149455187197   -2.54743098592830    0.40262205670455
C         4.25760641669022   -2.48052686471191   -0.07784382282557
C         5.11410281617501   -2.05985123869506    1.12018899540370
H         4.75448324459652   -1.10255218819463    1.48917414102655
H         4.98511634220703   -2.79393649449071    1.91106299000046
H         6.16560843585305   -2.00135253943743    0.85767718434414
C         4.71029955264292   -3.84191995534120   -0.59208690019279
H         4.74384655076149   -4.54044318509958    0.23874818965547
H         5.70369711851046   -3.76015733126125   -1.02352814915601
H         4.02471894634883   -4.23067129858397   -1.33658009056750
C         4.16006910056528   -1.35954924511471   -1.15658225862920
O         3.05813804472662   -0.57337414724473   -0.67053630535332
C         5.40367984871541   -0.49145589072784   -1.30942050084196
H         6.25224881391157   -1.10392053121570   -1.59998230177575
H         5.22628116654620    0.25274488822928   -2.08052038611250
H         5.62837139084415    0.02481091586263   -0.38350890531196
C         3.73830907370165   -1.90123096065974   -2.52888375884134
H         2.84782251802276   -2.51458753348312   -2.42060654191705
H         3.48514132762560   -1.06094368347549   -3.17020539101885
H         4.53543758826598   -2.47267972422325   -2.99349653579905
H        -3.38977361611922   -3.97814328581926   -2.57264561003172
H        -5.19183278963399    1.48475882059741    1.29773064231664
C         0.23590000000000   -1.68140000000000    2.96030000000003
C        -1.00305194932949   -2.10736103335191    3.44610148930298
C         1.30523722625089   -1.80196860072604    3.86272039857688
C        -1.11662226928202   -2.59353155298294    4.74201575457038
H        -1.89151973517593   -2.08440647097024    2.83337252273035
N         1.20795823731029   -2.28457513033270    5.08790274594262
H         2.30505758027456   -1.52140225799131    3.56215585745673
Cl       -2.64591582386631   -3.12139069951407    5.35400603406369
C         0.03131097862192   -2.68906195949988    5.51855789842057
Cl       -0.00509593475719   -3.39644173777389    7.09385718425706
95
 energy: -144.805572409010 gnorm: 0.037067905735 xtb: 6.4.1 (1a32961)
N        -0.94948950137236   -2.09616285886699   -0.26843767363323
C        -2.22262481716919   -1.68356231667612   -0.37263229955243
C        -3.12808211899495   -2.35000945918581   -1.20580157042650
C        -2.71219284498792   -3.45023687616689   -1.92449592657737
C        -1.39275600134169   -3.87081156789187   -1.79646668406477
C        -0.55775696085072   -3.15820210222598   -0.96118669620090
H         0.47421763032523   -3.44621527034529   -0.82454472844897
H        -1.02656855621009   -4.73032458143761   -2.33153534869019
H        -4.14634384798921   -2.01295179270729   -1.29667058952933
C        -2.58913638051832   -0.51608713079678    0.42553242665324
N        -1.60157699580737    0.06500301117943    1.13314619327207
C        -1.88767347093522    1.12666270964284    1.87691936997001
C        -3.15395598190660    1.66905762088562    1.97635173364221
C        -4.18489665627724    1.08087485686652    1.25305859916851
C        -3.89533832524303   -0.01644087156353    0.46981079786417
H        -4.68259363247098   -0.48479556572267   -0.09515454183544
H        -3.33149237289432    2.52397761743340    2.60647706932639
H        -1.05144947001303    1.55496631650612    2.40616158106787
Ir        0.42150000000000   -0.81650000000000    0.91330000000000
H         0.87260000000000   -2.23030000000000    1.54050000000000
B         0.48192459704489    0.43614445920507   -0.75692645652485
O         0.13113533142399   -0.02288718323701   -2.01559483759360
C        -0.00573119893228    1.09323761798954   -2.90819621728331
C         0.48589974091337    0.73329532064088   -4.30688836952862
H         1.49863519787337    0.34777325641890   -4.28061842950281
H         0.44795379353155    1.61348471784113   -4.94259222185119
H        -0.15943984183418   -0.03256288714222   -4.72796092255317
C        -1.50654923465049    1.41410536126735   -2.96776136062409
H        -1.71133141144624    2.22288365302008   -3.66164475849284
H        -2.03725429084408    0.52218510483183   -3.29245259217915
H        -1.86239559527712    1.67691405713552   -1.97418696460898
C         0.81412630201647    2.20479010465381   -2.18310471417142
O         0.75992740753054    1.77935358987092   -0.81331549097276
C         2.29211035866332    2.19953918354414   -2.59068590444597
H         2.69787997082181    1.20474429402138   -2.43033506141366
H         2.41927153245546    2.50905740070198   -3.62343266811116
H         2.83385677340049    2.88579772317775   -1.94517778063565
C         0.25726653747024    3.61915664026760   -2.31973903928519
H        -0.73922538839530    3.69677020147930   -1.89918096617221
H         0.90612776107535    4.30428069951729   -1.78154739204318
H         0.23480167956922    3.90571568615192   -3.36727476617492
B         1.57272001561937    0.62551827369521    1.86763130692597
O         2.92478175507626    0.57740800735905    2.11334584986746
C         3.36291646316168    1.88461224084724    2.51592180735615
C         4.52979199987140    1.78109712321975    3.49106652444574
H         4.28348441487061    1.13977423698829    4.32999301502933
H         5.38517627643539    1.35402947307517    2.97560480393728
H         4.79438398283537    2.77009427497030    3.85261914152217
C         3.80572001168139    2.59528277542362    1.23189314988086
H         4.19950788010158    3.58547778725185    1.43566887034233
H         4.57249563622394    1.99266686472071    0.75348470822631
H         2.95732102897772    2.64413473675599    0.55431955437385
C         2.05482533418041    2.49815414958610    3.09930594656875
O         1.04191501959226    1.78843440398564    2.36926359585988
C         1.89334789884422    3.99999095922151    2.89335537050053
H         1.85092403914340    4.24006898537554    1.83719429570222
H         0.96564304187791    4.32568409212176    3.35502963364189
H         2.72242054698727    4.52560343914998    3.35699524552030
C         1.85492705632718    2.14969073187568    4.57999161887972
H         1.96717938311991    1.07714834725579    4.71966544106033
H         2.56083291088738    2.68299250431727    5.20746862921981
H         0.84359749328927    2.42281253067384    4.87091916957184
B         2.27820000000000   -1.33090000000001    0.17410000000001
O         2.90334333967314   -2.53997327562595    0.41320797588882
C         4.25300374106482   -2.47892467902319   -0.07753853513292
C         5.12019622315682   -2.06023590575214    1.11443456949449
H         4.76214913474609   -1.10340971720637    1.48548341917068
H         4.99562382482996   -2.79502677761300    1.90490831362734
H         6.16871275990815   -2.00255238526702    0.84263816516765
C         4.70093665858932   -3.84201245010780   -0.59395631726043
H         4.73864896290086   -4.53912763389608    0.23746837703376
H         5.69165462066106   -3.75720641286023   -1.02973988548845
H         4.01188298678957   -4.23085603695175   -1.33484253204522
C         4.15544913041303   -1.35931110563121   -1.15755285655688
O         3.04725006782945   -0.57857121102340   -0.68068852084330
C         5.39852236323716   -0.48863705515827   -1.30493584208101
H         6.24683519737230   -1.10426609222788   -1.58815304635580
H         5.22469473924884    0.25177977071059   -2.08006811092404
H         5.61780182050574    0.03065706978855   -0.37974537156722
C         3.74704575986886   -1.90414073537926   -2.53360688594172
H         2.85726351647005   -2.51887960740418   -2.43138441201574
H         3.49899249923765   -1.06486182800404   -3.17789737435115
H         4.55099821734959   -2.47357895189498   -2.98755794000909
H        -3.39755354695544   -3.97354136669377   -2.57187883874371
H        -5.18920963815631    1.47128156296572    1.30112556429542
C         0.23590000000001   -1.68140000000001    2.96030000000005
C        -1.00479639772785   -2.11261601232207    3.43821535194938
C         1.29695037930107   -1.78002193383968    3.87678362263858
C        -1.12899561709800   -2.58321642613061    4.73887558828639
H        -1.88646809409956   -2.10547129721749    2.81477919947269
N         1.18798979204349   -2.24612499414505    5.10712420420238
H         2.29675600783020   -1.49189804945995    3.58383401474176
Cl       -2.66142903577892   -3.11805512332285    5.34037142174798
C         0.01152941372640   -2.65625932675398    5.52979600904378
Cl       -0.03718353774219   -3.34284467848873    7.11633078756754
95
 energy: -144.806588527133 gnorm: 0.037483998098 xtb: 6.4.1 (1a32961)
N        -0.94009082070464   -2.09814844818981   -0.28066522044787
C        -2.21406582257310   -1.68336771600069   -0.37869582774018
C        -3.12515269437276   -2.34674833680830   -1.20975068564499
C        -2.71614611212257   -3.44701972585988   -1.93210381670953
C        -1.39483935316275   -3.86874860502884   -1.81288458496956
C        -0.55368677700081   -3.15778706941807   -0.98077210146742
H         0.47960520350523   -3.44833392763805   -0.85485905223663
H        -1.03365313230544   -4.72809048039429   -2.35204038353185
H        -4.14321038184294   -2.00636533131057   -1.29375989788329
C        -2.57831673060018   -0.51941893915543    0.42250255368495
N        -1.59096794011778    0.06151691107736    1.13308688650067
C        -1.87966485100566    1.12443604311410    1.87566882565266
C        -3.14777373350530    1.66288680912236    1.97762386396327
C        -4.17955489517143    1.07117099143140    1.25552410850306
C        -3.88614581013570   -0.02198205665363    0.46833237995476
H        -4.67142617788870   -0.49237078766295   -0.09815001768564
H        -3.32694222272225    2.51611130319714    2.60952903778235
H        -1.04543528273742    1.55930203044533    2.40386327924984
Ir        0.42150000000000   -0.81650000000000    0.91329999999999
H         0.87260000000000   -2.23029999999999    1.54050000000000
B         0.47757792141507    0.44969358477360   -0.73470019619501
O         0.09664920906074   -0.01105078069021   -1.98433887803175
C        -0.02454376957483    1.09626266434799   -2.88311888800241
C         0.47817150563448    0.71938259625711   -4.27470635785243
H         1.48643766847908    0.32199403612765   -4.23404819795188
H         0.45681403574643    1.59638682474671   -4.91620760441909
H        -0.17172528216841   -0.04261731750931   -4.69663963621342
C        -1.52306032750373    1.43014999180755   -2.96530781994749
H        -1.70834286491479    2.23696454997772   -3.66733017577855
H        -2.05661984333205    0.54105241806534   -3.29377251652067
H        -1.89332316997616    1.70244491637088   -1.97912461419828
C         0.80030857691759    2.21035216180232   -2.16371831907300
O         0.76126616367097    1.78908525078782   -0.79551739855093
C         2.27604452913095    2.20949614167392   -2.58392607486501
H         2.68879236394846    1.21868236455278   -2.41451730822712
H         2.39092744128330    2.50694447318377   -3.62175397583186
H         2.81873972027664    2.90779172835681   -1.95152592261518
C         0.23771159774135    3.62337851641995   -2.30309672658414
H        -0.75432476581708    3.70268651021549   -1.87140697914544
H         0.89199521158644    4.31550117000345   -1.77957933473718
H         0.20165684851648    3.89867333086335   -3.35368353098161
B         1.57540990312337    0.62659997346283    1.87312150962029
O         2.92926253848950    0.58543975870841    2.09525642291258
C         3.36553652601295    1.88576146337775    2.51869621881446
C         4.53114792254966    1.77178172545866    3.49619457026552
H         4.28699200692166    1.11623823041288    4.32544364551446
H         5.39184903924541    1.35892650268313    2.97685403578383
H         4.78701405848880    2.75775531883959    3.87397833466046
C         3.81380466125338    2.61609277494920    1.24600434174485
H         4.20032041876834    3.60595859629041    1.46656045636282
H         4.58841132445578    2.02430994209797    0.76565433232426
H         2.96980914266174    2.66981477861424    0.56308084420544
C         2.05760675660789    2.49331609775668    3.11219802465356
O         1.04102655496911    1.77525924232789    2.39768046375599
C         1.88910881130176    3.99476329470235    2.89930165071596
H         1.82940939358245    4.22981256183539    1.84218923252965
H         0.96868457681979    4.32277773711940    3.37508000602786
H         2.72621970902137    4.52322065036154    3.34655811465430
C         1.87487001502132    2.15724383933459    4.59924156085386
H         1.99367811409371    1.08671753569768    4.74957913338960
H         2.58570021609372    2.70140415381750    5.21244558762698
H         0.86535077918790    2.42892202771085    4.89835752879706