14
 energy: -24.931713164405 gnorm: 0.057594709386 xtb: 6.4.1 (1a32961)
C        -0.01988000000000    2.12386000000000   -0.01075000000000
C        -1.22206000000000    1.41511000000000   -0.00066000000000
C        -1.21317000000000    0.01598000000000    0.01195000000000
C        -2.44839000000000   -0.70924000000000    0.01380000000000
N        -3.44802000000000   -1.29805000000000    0.01565000000000
C         0.00436000000000   -0.67422000000000    0.01677000000000
C         1.20991000000000    0.03601000000000    0.00820000000000
C         2.45635000000000   -0.67154000000000    0.00363000000000
N         3.46025000000000   -1.25251000000000   -0.00400000000000
C         1.19459000000000    1.43527000000000   -0.00407000000000
H        -0.02982000000000    3.21193000000000   -0.02674000000000
H        -2.16526000000000    1.95996000000000   -0.00466000000000
H         0.01352000000000   -1.76409000000000    0.02420000000000
H         2.12759000000000    1.99710000000000   -0.01131000000000
14
 energy: -24.933671789750 gnorm: 0.018767563015 xtb: 6.4.1 (1a32961)
C        -0.01928709704396    2.11349444190663   -0.01076973360086
C        -1.21620013891604    1.41349007222666   -0.00232433977606
C        -1.20550449360317    0.01705302479730    0.00979574693349
C        -2.43043231937198   -0.70163452149778    0.01635199130781
N        -3.41631939202639   -1.28158930626471    0.01650394032114
C         0.00365468287520   -0.67625464092425    0.01421423796590
C         1.20127605417488    0.03663810698491    0.00597935380286
C         2.43634584474045   -0.66524740333715    0.00945573956477
N         3.42977908142984   -1.23208289353015   -0.00547544803892
C         1.18905157351616    1.43305181957580   -0.00591235338760
H        -0.02843584890000    3.19364355481097   -0.02278537124239
H        -2.15638845151350    1.94904878530143   -0.00562975687450
H         0.01259574554161   -1.75872736771988    0.02435945690011
H         2.11983475909689    1.98468632767021   -0.01175346387576
14
 energy: -24.933747862384 gnorm: 0.005152172062 xtb: 6.4.1 (1a32961)
C        -0.01980909044306    2.11224786491816   -0.00898738360598
C        -1.21505213830324    1.41412759925374   -0.00168396809834
C        -1.20217117261773    0.01779612410362    0.00934377760900
C        -2.42295723245592   -0.70046191722856    0.00868426247394
N        -3.41300890664055   -1.27803337820061    0.02594770869019
C         0.00467656988694   -0.67669210852796    0.01346738227746
C         1.19912363962775    0.03897896818170    0.00515546278310
C         2.43239367412657   -0.65768134479507   -0.00737142540746
N         3.42156584196548   -1.23700534217895    0.01163096004948
C         1.18743435611525    1.43511900307840   -0.00544434875706
H        -0.02915279394112    3.19027038790198   -0.01984310889854
H        -2.15614321834015    1.94300338512585   -0.00604519162669
H         0.01412239230159   -1.75667559904341    0.02071083504438
H         2.11894807871818    1.98057635741111   -0.01355496253348
14
 energy: -24.933722962236 gnorm: 0.012657580607 xtb: 6.4.1 (1a32961)
C        -0.01869978071961    2.11111277395545   -0.01122574162742
C        -1.21397456036852    1.41625678096706   -0.00405683624083
C        -1.20128580885781    0.01960819128737    0.00745534814890
C        -2.42025791265112   -0.69549435645689    0.02397789222283
N        -3.40969154113705   -1.27950355087398    0.01455052218572
C         0.00261730955210   -0.67816342837160    0.01136650942359
C         1.19572397933178    0.03807476958628    0.00336587313788
C         2.42383759640960   -0.66101056833142    0.01441239924625
N         3.42543629380894   -1.22341565417601   -0.00511508370887
C         1.18707921938589    1.43469018410614   -0.00776217633659
H        -0.02689490858417    3.18784996799513   -0.01871717128723
H        -2.15604481676849    1.93931829494846   -0.00640236061329
H         0.01119015189193   -1.75610110976223    0.02308347530997
H         2.12093477870652    1.97234770512625   -0.01292264986091
14
 energy: -24.933811008808 gnorm: 0.001598647461 xtb: 6.4.1 (1a32961)
C        -0.01924262821434    2.11250996554234   -0.01000073487757
C        -1.21517092475661    1.41540081698382   -0.00317083165344
C        -1.20257646361886    0.01827460647735    0.00733966944959
C        -2.42291070055978   -0.69916904013173    0.01112160610170
N        -3.41332748217622   -1.27716793904197    0.02636618953401
C         0.00353524443332   -0.67807376548360    0.01135173528480
C         1.19814440384226    0.03790312722013    0.00360205711664
C         2.42922191620540   -0.66099165722638    0.00784616058533
N         3.42593150304765   -1.22784877055907    0.00149553700144
C         1.18791555234744    1.43496767497477   -0.00670687626361
H        -0.02799000055533    3.19084338748083   -0.01881396607333
H        -2.15781296629181    1.94077451400691   -0.00673529152424
H         0.01250491182037   -1.75765085476455    0.02064759334140
H         2.12174763447652    1.97579793452116   -0.01233284802271
14
 energy: -24.933653529776 gnorm: 0.007561611381 xtb: 6.4.1 (1a32961)
C        -0.01952534929702    2.11412756425811   -0.01043521014153
C        -1.21556165518784    1.41604648176796   -0.00181467570954
C        -1.20322555061904    0.01865586479548    0.00959785787301
C        -2.42574261216738   -0.69728142279851    0.03406553005166
N        -3.41022220227622   -1.28318220680270    0.00659374684021
C         0.00389098132292   -0.67748139720067    0.01087245659898
C         1.19919160554328    0.03872518684718    0.00123122784129
C         2.43323043727579   -0.65731267572260   -0.01153240854266
N         3.42186993808712   -1.23698462991577    0.01955566708165
C         1.18804546786049    1.43605842807896   -0.00825897250398
H        -0.02848050763553    3.19328449289172   -0.01928863392044
H        -2.15903243740573    1.94153131841826   -0.00228332930378
H         0.01301241305342   -1.75783976960173    0.01983282392787
H         2.12251947144573    1.97722276498431   -0.01612608009274
14
 energy: -24.933800456169 gnorm: 0.002800771908 xtb: 6.4.1 (1a32961)
C        -0.01930769838495    2.11320567738647   -0.01032816376520
C        -1.21520386010713    1.41589052377502   -0.00253781622679
C        -1.20277319920008    0.01856490623799    0.00829034998312
C        -2.42400987809073   -0.69793498023538    0.02217542169958
N        -3.41191086313349   -1.27944878261427    0.01739999513293
C         0.00353297527834   -0.67803074155533    0.01066794374127
C         1.19830608158002    0.03819036193403    0.00220263389422
C         2.43057411595484   -0.65924517370083   -0.00029938311981
N         3.42458215379041   -1.23065852569465    0.01021785302347
C         1.18784074344747    1.43547135742964   -0.00768962834234
H        -0.02804690737969    3.19187399810439   -0.01885016222504
H        -2.15864174966843    1.94028908155592   -0.00443649362775
H         0.01250140105138   -1.75782043069691    0.01951782934654
H         2.12252668486203    1.97522272807391   -0.01432037951420
14
 energy: -24.933819711314 gnorm: 0.000935970887 xtb: 6.4.1 (1a32961)
C        -0.01916677539975    2.11275507270047   -0.01021236305803
C        -1.21502068812554    1.41573890902715   -0.00291927004692
C        -1.20263603890830    0.01842611812581    0.00729556673948
C        -2.42344785415019   -0.69830398394311    0.01567643739773
N        -3.41357118732597   -1.27721634085047    0.02379994464777
C         0.00330896528615   -0.67841379531082    0.01024705121496
C         1.19790114506801    0.03775624993474    0.00259807981185
C         2.42954552025632   -0.66022565812561    0.00530662946078
N         3.42676660781105   -1.22683427844222    0.00610101856638
C         1.18775874537052    1.43503821609638   -0.00737940185073
H        -0.02777015559388    3.19125579793790   -0.01865034201452
H        -2.15854605747415    1.93959154523412   -0.00536545145799
H         0.01215796976581   -1.75800977073143    0.01886422003793
H         2.12268980341990    1.97401191834708   -0.01335211944869
14
 energy: -24.933820118819 gnorm: 0.000466488362 xtb: 6.4.1 (1a32961)
C        -0.01911804949918    2.11262488526409   -0.01029952373920
C        -1.21498588487443    1.41564590163700   -0.00282821913936
C        -1.20270793035636    0.01833134667172    0.00740772459738
C        -2.42365029731701   -0.69817071477546    0.01597644465554
N        -3.41365465139048   -1.27669836179546    0.02366921864667
C         0.00319903031746   -0.67858418258089    0.01010842698084
C         1.19782659972168    0.03751805757733    0.00249597939592
C         2.42961253676056   -0.66022497105695    0.00528194991466
N         3.42716230752301   -1.22575893440373    0.00651194144720
C         1.18774049996437    1.43481072751717   -0.00748270559804
H        -0.02766174922798    3.19112514452108   -0.01871911357479
H        -2.15853169015233    1.93948896823157   -0.00516912707638
H         0.01197802823152   -1.75819266627861    0.01849071836981
H         2.12276125029918    1.97365479947113   -0.01343371488024
