23
 energy: -44.787281020223 gnorm: 0.000212554320 xtb: 6.4.1 (1a32961)
C         1.83798398573184    1.25101056473156   -0.00017020703610
C         2.85797800173027    0.33912331526645   -0.00116285856158
C         2.56008445669892   -1.03539114686135   -0.00133489100072
C         3.66579116218568   -2.04902010580738   -0.00448452452308
F         4.89719881328590   -1.51277123728493   -0.00524462219794
F         3.62181190484703   -2.86884581433729    1.06806335014483
F         3.61872980080573   -2.86469232132015   -1.08011278983559
C         1.26373610226070   -1.48854502528813    0.00042937608141
C         0.20160287200716   -0.56312395953184    0.00236975211484
N        -1.06164366151396   -1.03439433536477    0.00553073374204
C        -2.06109240542726   -0.19154448585696    0.00689677569494
C        -3.44269866649984   -0.75765440946807    0.01184416044891
C        -1.86992901854146    1.21414084116517    0.00400183857116
C        -0.60266146497369    1.71899865384560    0.00146795815780
C         0.49585389743973    0.82758681099220    0.00120444386621
H         2.05388169565657    2.30859146979840   -0.00039966586535
H         3.88772603647169    0.65949515796634   -0.00192170921965
H         1.03375842587990   -2.54221103859743    0.00037467983358
H        -3.39442843586414   -1.84200689283382    0.01461269544970
H        -3.98738520268845   -0.42062101351374   -0.86828559335409
H        -3.98303370941475   -0.41594968195613    0.89288526747576
H        -2.73191622042384    1.86314131824701    0.00408459724744
H        -0.41993836965373    2.78389333600925   -0.00061876723452
