23
 energy: -44.780939350805 gnorm: 0.093319909891 xtb: 6.4.1 (1a32961)
C         1.81856000000000    1.24718000000000    0.00587000000000
C         2.86527000000000    0.32633000000000    0.00842000000000
C         2.59362000000000   -1.04629000000000   -0.00295000000000
C         3.70485000000000   -2.06361000000000   -0.00461000000000
F         4.94797000000000   -1.50508000000000   -0.00094000000000
F         3.66430000000000   -2.88425000000000    1.08056000000000
F         3.66784000000000   -2.87763000000000   -1.09480000000000
C         1.25478000000000   -1.47270000000000   -0.00999000000000
C         0.19707000000000   -0.57623000000000   -0.00757000000000
N        -1.05845000000000   -1.04927000000000   -0.00484000000000
C        -2.08504000000000   -0.16662000000000   -0.00110000000000
C        -3.47143000000000   -0.73547000000000    0.02164000000000
C        -1.89164000000000    1.20856000000000   -0.00874000000000
C        -0.59028000000000    1.69759000000000   -0.00875000000000
C         0.48640000000000    0.80385000000000   -0.00435000000000
H         2.04695000000000    2.31099000000000    0.01372000000000
H         3.89374000000000    0.68560000000000    0.01927000000000
H         1.02547000000000   -2.53743000000000   -0.01620000000000
H        -3.44223000000000   -1.82980000000000    0.02662000000000
H        -4.02827000000000   -0.41276000000000   -0.86341000000000
H        -3.99895000000000   -0.40547000000000    0.92207000000000
H        -2.73612000000000    1.89044000000000   -0.00945000000000
H        -0.42300000000000    2.77128000000000   -0.01044000000000
23
 energy: -44.786170133122 gnorm: 0.039918113938 xtb: 6.4.1 (1a32961)
C         1.82891914433733    1.24555257055740    0.00490394666632
C         2.85658943193586    0.33018310685191    0.00701964685425
C         2.57172023843655   -1.04235973183736   -0.00258650922306
C         3.68090757776003   -2.05316030451779   -0.00437552929516
F         4.91569234240371   -1.49886803393090   -0.00124439774323
F         3.64685224418091   -2.87428453980075    1.07237022370025
F         3.64941950418762   -2.86768017631174   -1.08609729221622
C         1.25986841218801   -1.48600782664597   -0.00907291664271
C         0.19502274172139   -0.57459481492671   -0.00649676731675
N        -1.06524815651043   -1.04377333864732   -0.00231860511774
C        -2.07239929977330   -0.17970794834819    0.00236772218147
C        -3.45550430290130   -0.74672812449635    0.02023122140560
C        -1.87623801072412    1.20879239089632   -0.00559432227825
C        -0.59490383885774    1.70953669994824   -0.00738518102791
C         0.49093038747856    0.81707040865480   -0.00363337815061
H         2.05602001772738    2.30183217742300    0.01163351718787
H         3.88212291713260    0.67453942132031    0.01631807012841
H         1.03748628136503   -2.54515170291128   -0.01492124332784
H        -3.41945539176792   -1.83430778258382    0.02415935243657
H        -4.01037614888676   -0.41197449434554   -0.85599104378939
H        -3.98593664537452   -0.40593747260146    0.90939610152791
H        -2.72408051654417    1.87847142647582   -0.00850661538577
H        -0.42599892951473    2.77776808977740   -0.01014600057400
23
 energy: -44.787199711557 gnorm: 0.007490646941 xtb: 6.4.1 (1a32961)
C         1.83704718766958    1.24633882095314    0.00361967569419
C         2.85560667213112    0.33484926862438    0.00494649452928
C         2.55850032803659   -1.03896017978670   -0.00230368354083
C         3.66663274196833   -2.04746880898271   -0.00432694890885
F         4.89663439188634   -1.50133447568621   -0.00198885232447
F         3.63020313500184   -2.86813922618304    1.06686786227426
F         3.63147202858428   -2.86192385555073   -1.08020337527580
C         1.26302614082032   -1.49171991721628   -0.00702999704421
C         0.19700120025093   -0.56912801786509   -0.00374602003034
N        -1.06598563129131   -1.03629418134201    0.00059094450150
C        -2.06303052606529   -0.19012653972285    0.00432599695442
C        -3.44539829630584   -0.75436025244245    0.01827571803778
C        -1.86869410815337    1.21049574929938   -0.00276054223586
C        -0.60035963764522    1.71654119300594   -0.00496267115338
C         0.49475086941352    0.82550989951115   -0.00197631592705
H         2.05770797105477    2.30168099003725    0.00829318943214
H         3.88255982491082    0.66301275179231    0.01181402651138
H         1.03920910248572   -2.54649532651492   -0.01214113718922
H        -3.40014727902587   -1.83798802430246    0.02149412631571
H        -3.99676969309374   -0.41514322609965   -0.85654564476832
H        -3.97920562014983   -0.40979592697970    0.90214438780744
H        -2.72412409794775    1.86791565648980   -0.00534922357926
H        -0.42522670453594    2.78174362896146   -0.00900801008049
23
 energy: -44.787256512236 gnorm: 0.003981217913 xtb: 6.4.1 (1a32961)
C         1.83783807451508    1.24828157469223    0.00277468628064
C         2.85734868058271    0.33667411174486    0.00361931900821
C         2.55902135966973   -1.03767343808982   -0.00208906462407
C         3.66644732537250   -2.04816702088511   -0.00441136949170
F         4.89683017201671   -1.50580015355583   -0.00282331171058
F         3.62637096149739   -2.86835947148566    1.06702590060109
F         3.62657476600147   -2.86274214159569   -1.08007733891918
C         1.26338510350840   -1.49082860980846   -0.00525378502491
C         0.19906473081959   -0.56652519859770   -0.00218909266485
N        -1.06383824893284   -1.03509060539950    0.00217957050281
C        -2.06254558976763   -0.19099345298597    0.00553848933526
C        -3.44472670156948   -0.75592340844999    0.01673813104880
C        -1.86968106316752    1.21242138205025   -0.00085410467794
C        -0.60163906871879    1.71763988404061   -0.00351451917383
C         0.49535039118859    0.82648392688037   -0.00118388616241
H         2.05566419843146    2.30509931981774    0.00602098537127
H         3.88582327592174    0.66050437755140    0.00848795734033
H         1.03668661738722   -2.54517839766481   -0.00933759989748
H        -3.39768295955955   -1.83987902488529    0.01961417256450
H        -3.99380556900185   -0.41740573196726   -0.85996378586863
H        -3.98012192134474   -0.41259833180857    0.90019752356565
H        -2.72800886538471    1.86645051814518   -0.00315812230345
H        -0.42294566946549    2.78281989225701   -0.00731075509951
23
 energy: -44.787278706860 gnorm: 0.000886080366 xtb: 6.4.1 (1a32961)
C         1.83820978869002    1.25054165255811    0.00130265986716
C         2.85840866207396    0.33884864644194    0.00127917970828
C         2.55977400454430   -1.03586395500951   -0.00176034477715
C         3.66619500022934   -2.04901980100600   -0.00448386121875
F         4.89731517227117   -1.51129976805629   -0.00415252999595
F         3.62231525024513   -2.86875653204119    1.06764589754861
F         3.62080130211807   -2.86410217308687   -1.08009746462936
C         1.26360293892813   -1.48916547792191   -0.00245367507052
C         0.20125984261917   -0.56352207355056    0.00023481236723
N        -1.06168110533198   -1.03404869195634    0.00407127459652
C        -2.06167539750920   -0.19156237731877    0.00638883420380
C        -3.44343319207954   -0.75753767901089    0.01435590864986
C        -1.87025185597978    1.21426235055461    0.00163928130424
C        -0.60262460573890    1.71863347326766   -0.00104742664988
C         0.49591563159278    0.82735121303366    0.00009721864058
H         2.05348105433414    2.30852095956612    0.00278693386855
H         3.88827423155961    0.65865895946220    0.00342731488521
H         1.03377731956692   -2.54295959628648   -0.00470827973011
H        -3.39529816675612   -1.84189715696802    0.01695476600084
H        -3.98991397155496   -0.42012199011754   -0.86448433745537
H        -3.98135450433938   -0.41573906358893    0.89686749562349
H        -2.73163372010330    1.86430734603899    0.00050070547479
H        -0.42005367937957    2.78368173499603   -0.00433436321209
23
 energy: -44.787280366804 gnorm: 0.000380641461 xtb: 6.4.1 (1a32961)
C         1.83807825482188    1.25099925983338    0.00051660540913
C         2.85814704063402    0.33920704347186    0.00002350637348
C         2.55997011867380   -1.03541385085458   -0.00151577411411
C         3.66593448136118   -2.04910414929099   -0.00447718952463
F         4.89728951728216   -1.51254392960477   -0.00480801421788
F         3.62168346883976   -2.86881492350510    1.06798727222439
F         3.61925155011821   -2.86456090650516   -1.08010620984568
C         1.26366357603153   -1.48863706286368   -0.00092929158481
C         0.20160000383611   -0.56304044690429    0.00132892873659
N        -1.06152699396641   -1.03415570775263    0.00492616405221
C        -2.06125042357662   -0.19156755465293    0.00683987336303
C        -3.44285579000619   -0.75772112751591    0.01297254284861
C        -1.87005362993872    1.21432671186422    0.00298709633114
C        -0.60267136826778    1.71886371454511    0.00023513600714
C         0.49593550997538    0.82751628510055    0.00062045880000
H         2.05347322184081    2.30881089846388    0.00103245028930
H         3.88805645914655    0.65896122718990    0.00047391431600
H         1.03348581733549   -2.54228781870904   -0.00195909659562
H        -3.39463404885537   -1.84211552437253    0.01556677921367
H        -3.98837355118168   -0.42055932658869   -0.86658398915816
H        -3.98215275611614   -0.41620449665221    0.89472251777004
H        -2.73198116819934    1.86345594422857    0.00245310022160
H        -0.41965928978864    2.78379574107504   -0.00227678091543
23
 energy: -44.787281020169 gnorm: 0.000213210826 xtb: 6.4.1 (1a32961)
C         1.83798398573184    1.25101056473156   -0.00017020703610
C         2.85797800173027    0.33912331526645   -0.00116285856158
C         2.56008445669892   -1.03539114686135   -0.00133489100072
C         3.66579116218568   -2.04902010580738   -0.00448452452308
F         4.89719881328590   -1.51277123728493   -0.00524462219794
F         3.62181190484703   -2.86884581433729    1.06806335014483
F         3.61872980080573   -2.86469232132015   -1.08011278983559
C         1.26373610226070   -1.48854502528813    0.00042937608141
C         0.20160287200716   -0.56312395953184    0.00236975211484
N        -1.06164366151396   -1.03439433536477    0.00553073374204
C        -2.06109240542726   -0.19154448585696    0.00689677569494
C        -3.44269866649984   -0.75765440946807    0.01184416044891
C        -1.86992901854146    1.21414084116517    0.00400183857116
C        -0.60266146497369    1.71899865384560    0.00146795815780
C         0.49585389743973    0.82758681099220    0.00120444386621
H         2.05388169565657    2.30859146979840   -0.00039966586535
H         3.88772603647169    0.65949515796634   -0.00192170921965
H         1.03375842587990   -2.54221103859743    0.00037467983358
H        -3.39442843586414   -1.84200689283382    0.01461269544970
H        -3.98738520268845   -0.42062101351374   -0.86828559335409
H        -3.98303370941475   -0.41594968195613    0.89288526747576
H        -2.73191622042384    1.86314131824701    0.00408459724744
H        -0.41993836965373    2.78389333600925   -0.00061876723452
