111
 energy: -159.037460123918 gnorm: 0.000222185754 xtb: 6.4.1 (1a32961)
N        -0.88776185434152   -2.04966088451760   -0.41662494311445
C        -2.14432820189568   -1.59666257682779   -0.57029248339092
C        -2.96412413428118   -2.08034986359213   -1.59663624860636
C        -2.48552861606493   -3.04336636882184   -2.45885715563622
C        -1.18756928448749   -3.51229282468420   -2.27968962885388
C        -0.43654899307943   -2.98042624298977   -1.25161925173481
H         0.57797574648372   -3.30895281310406   -1.07620204884353
H        -0.77354048106187   -4.26750226981993   -2.92766801566922
H        -3.96186488045094   -1.69601442375818   -1.73032516163499
C        -2.58336192977019   -0.57053156805274    0.37136503332296
N        -1.64252581066102   -0.05791295245951    1.19023772735325
C        -1.99579265891865    0.88611306302671    2.05782355598435
C        -3.28358164959558    1.37054199129604    2.17435509442382
C        -4.26853714821403    0.84375152515871    1.34460615941216
C        -3.91060756276995   -0.13074268440920    0.43699596794771
H        -4.66131488668985   -0.55867913448352   -0.20636677718259
H        -3.51409308321819    2.13118242365236    2.90245759573761
H        -1.19697335057424    1.26545227642682    2.67636597545951
Ir        0.42149999999996   -0.81650000000006    0.91330000000005
H         0.87260000000006   -2.23030000000009    1.54049999999998
B         0.33665934762048    0.62096022812688   -0.59660031609990
O        -0.34504944618265    0.33531395390746   -1.76735505421195
C        -0.52653066987719    1.53113864361414   -2.53268010084753
C        -0.34333550520531    1.22677996798154   -4.01715156531823
H         0.59188918152190    0.70489508294499   -4.19003612139529
H        -0.36000194294290    2.14880335813552   -4.59238817344148
H        -1.15655043428479    0.58773995478981   -4.35312517468262
C        -1.96672166305962    2.00452424232865   -2.28620761409202
H        -2.19694437558303    2.88811134023624   -2.87393237181819
H        -2.64855175816079    1.20395209223793   -2.56682456317045
H        -2.11416115557019    2.21714261969460   -1.22905902480801
C         0.54043927606914    2.49295595930740   -1.91570399241960
O         0.73906230649623    1.93641710389945   -0.60853605018014
C         1.89089433866302    2.41067205488313   -2.63768500501723
H         2.22427928475510    1.37564930069913   -2.65320732839878
H         1.82630339154616    2.80690435131689   -3.64685047175813
H         2.62186918512788    2.98711926013697   -2.07559093026407
C         0.10590835501939    3.95276208272556   -1.80382972786931
H        -0.74343081564168    4.06088780426002   -1.13623070229667
H         0.92857282374579    4.54023677709240   -1.40342614409078
H        -0.15392320093457    4.33924455811196   -2.78608966490003
B         1.51710374246259    0.68593116582845    1.85246950084628
O         2.86848466132097    0.91894133500019    1.82874753101133
C         3.15916129123391    2.19599349934429    2.41851052907597
C         4.43128803111270    2.09985605918751    3.25865149368699
H         4.36341235889719    1.29199901422361    3.97928328015915
H         5.27569435719933    1.90045609884716    2.60400090598287
H         4.60570214292884    3.03808315049304    3.77830710382818
C         3.38382186415401    3.16979587790048    1.25579674275504
H         3.58790885879629    4.17517751786799    1.61134126250774
H         4.23223596943390    2.82147112986339    0.67112466053128
H         2.50747918996460    3.16036894390958    0.61290102616431
C         1.85488789147972    2.50754608560891    3.23054160693176
O         0.88947084065550    1.63799347081180    2.62313545912794
C         1.36251592084200    3.95030912553057    3.12876501228324
H         1.10658749770125    4.19588036159816    2.10348764147868
H         0.47012262421712    4.06440808084403    3.73953498551778
H         2.12408312709079    4.63467544406673    3.49219495996972
C         1.95365759862589    2.11053313909670    4.70893666598325
H         2.23990653085760    1.06613559777811    4.79879396476832
H         2.66528436391667    2.73794687422100    5.23645730223041
H         0.97447447609743    2.22532253559722    5.16869520384329
B         2.27819999999917   -1.33090000000208    0.17409999999915
O         3.18269073395669   -2.17635061582520    0.77730507567017
C         4.45137988271579   -2.10679697488427    0.11190648707085
C         5.35728230429659   -1.23827994568144    0.99116635326813
H         4.86746326445646   -0.28517448398639    1.16795785569085
H         5.48210026415787   -1.73316284834462    1.95084998042893
H         6.33286613140743   -1.09338094692789    0.53802487422840
C         5.04714639167128   -3.51071367841440    0.00549332846592
H         5.23576599557633   -3.88624446820035    1.00766527061858
H         5.98522344237401   -3.47745901519505   -0.54127982487582
H         4.36432475324179   -4.19534247555736   -0.48629851316559
C         4.09146997992979   -1.43201744392311   -1.26043224095517
O         2.79384568403973   -0.86841554178069   -1.01292352898204
C         5.03798827262357   -0.31229365705730   -1.69108888714361
H         6.05211201755179   -0.68850883507193   -1.79117942224464
H         4.71136347224076    0.07755173621624   -2.65187851935411
H         5.01336044886944    0.49829866277886   -0.97106908816345
C         3.94193907023593   -2.43381910914887   -2.41303585592130
H         3.23719835768540   -3.21583828278188   -2.14485746299669
H         3.54711084011313   -1.90937055892612   -3.27976174601927
H         4.89944431022340   -2.87515393328750   -2.67232775295791
H        -3.10535624985189   -3.42166690151630   -3.25739421376304
H        -5.29015629072990    1.18598911969227    1.40991136264242
C         0.23589999999974   -1.68140000000131    2.96029999999787
C        -1.01520800185250   -2.11589988126386    3.39608915288295
C         1.20556740654819   -1.51239717890439    3.95336521040819
C        -1.26063331078508   -2.26311934230837    4.75106452896927
H        -1.80417359136272   -2.34484987300128    2.69218549002936
N         0.99028844466240   -1.67241642186371    5.24484498392704
H         2.21832796957533   -1.24545543349817    3.68092545642776
C        -0.22530594235394   -2.03606995911964    5.65423889360073
H        -2.22816658993913   -2.56887168142139    5.12162456587820
C        -0.51968989077089   -2.16518737106984    7.11292913774703
O        -1.63524615826813   -1.83199622572523    7.52379189045507
N         0.41638967015889   -2.65874391664476    7.94208192676315
C         1.72384937360567   -3.14534260199816    7.54903706220008
C         0.09355181832710   -2.76658477544689    9.35625407866667
C         2.80940808442592   -2.08471769225239    7.71753478033720
H         1.69073680921132   -3.46094134781278    6.50683708586535
H         1.95173242096229   -4.01504541702624    8.17128165885813
C        -0.50037676969247   -4.13010536873021    9.70383171324213
H        -0.63195321497747   -1.98468326167921    9.59169794867093
H         1.00595497996023   -2.59298363981649    9.92937622965102
H         2.59345393709559   -1.24726288410121    7.06175517596635
H         3.77361874903960   -2.50612366615633    7.44818789806086
H         2.85489402148882   -1.73196391267336    8.74475376687350
H        -1.42383186501559   -4.28055371381175    9.15006835342895
H        -0.71882125957480   -4.17580102232389   10.76713575903739
H         0.19150786828891   -4.93105402543878    9.45356601452775
