      -----------------------------------------------------------      
     |                   =====================                   |     
     |                           x T B                           |     
     |                   =====================                   |     
     |                         S. Grimme                         |     
     |          Mulliken Center for Theoretical Chemistry        |     
     |                    University of Bonn                     |     
      -----------------------------------------------------------      

   * xtb version 6.4.0 (f63f532) compiled by 'knkr256@seskscpg008.prim.scp' on 2021-04-09

   xtb is free software: you can redistribute it and/or modify it under
   the terms of the GNU Lesser General Public License as published by
   the Free Software Foundation, either version 3 of the License, or
   (at your option) any later version.
   
   xtb is distributed in the hope that it will be useful,
   but WITHOUT ANY WARRANTY; without even the implied warranty of
   MERCHANTABILITY or FITNESS FOR A PARTICULAR PURPOSE.  See the
   GNU Lesser General Public License for more details.
   
   Cite this work as:
   * C. Bannwarth, E. Caldeweyher, S. Ehlert, A. Hansen, P. Pracht,
     J. Seibert, S. Spicher, S. Grimme, WIREs Comput. Mol. Sci., 2020, 11,
     e01493. DOI: 10.1002/wcms.1493
   
   for GFN2-xTB:
   * C. Bannwarth, S. Ehlert and S. Grimme., J. Chem. Theory Comput., 2019,
     15, 1652-1671. DOI: 10.1021/acs.jctc.8b01176
   for GFN1-xTB:
   * S. Grimme, C. Bannwarth, P. Shushkov, J. Chem. Theory Comput., 2017,
     13, 1989-2009. DOI: 10.1021/acs.jctc.7b00118
   for GFN0-xTB:
   * P. Pracht, E. Caldeweyher, S. Ehlert, S. Grimme, ChemRxiv, 2019, preprint.
     DOI: 10.26434/chemrxiv.8326202.v1
   for GFN-FF:
   * S. Spicher and S. Grimme, Angew. Chem. Int. Ed., 2020, 59, 15665-15673.
     DOI: 10.1002/anie.202004239
   
   for DFT-D4:
   * E. Caldeweyher, C. Bannwarth and S. Grimme, J. Chem. Phys., 2017,
     147, 034112. DOI: 10.1063/1.4993215
   * E. Caldeweyher, S. Ehlert, A. Hansen, H. Neugebauer, S. Spicher,
     C. Bannwarth and S. Grimme, J. Chem. Phys., 2019, 150, 154122.
     DOI: 10.1063/1.5090222
   * E. Caldeweyher, J.-M. Mewes, S. Ehlert and S. Grimme, Phys. Chem. Chem. Phys.
     2020, 22, 8499-8512. DOI: 10.1039/D0CP00502A
   
   for sTDA-xTB:
   * S. Grimme and C. Bannwarth, J. Chem. Phys., 2016, 145, 054103.
     DOI: 10.1063/1.4959605
   
   in the mass-spec context:
   * V. Asgeirsson, C. Bauer and S. Grimme, Chem. Sci., 2017, 8, 4879.
     DOI: 10.1039/c7sc00601b
   * J. Koopman and S. Grimme, ACS Omega 2019, 4, 12, 15120-15133.
     DOI: 10.1021/acsomega.9b02011
   
   for metadynamics refer to:
   * S. Grimme, J. Chem. Theory Comput., 2019, 155, 2847-2862
     DOI: 10.1021/acs.jctc.9b00143
   
   for SPH calculations refer to:
   * S. Spicher and S. Grimme, J. Chem. Theory Comput., 2021, 17, 1701-1714
     DOI: 10.1021/acs.jctc.0c01306
   
   with help from (in alphabetical order)
   P. Atkinson, C. Bannwarth, F. Bohle, G. Brandenburg, E. Caldeweyher
   M. Checinski, S. Dohm, S. Ehlert, S. Ehrlich, I. Gerasimov, J. Koopman
   C. Lavinge, S. Lehtola, F. März, M. Müller, F. Musil, H. Neugebauer
   J. Pisarek, P. Pracht, J. Seibert, P. Shushkov, S. Spicher, M. Stahn
   T. Strunk, J. Stückrath, T. Rose, and J. Unsleber
   
 * started run on 2021/10/08 at 07:33:43.279     

           -------------------------------------------------
          |                Calculation Setup                |
           -------------------------------------------------

          program call               : xtb xtbopt.xyz --sp --alpb thf -P 6
          hostname                   : seskscpg010.prim.scp
          coordinate file            : xtbopt.xyz
          omp threads                :                     6
          number of atoms            :                   108
          number of electrons        :                   280
          charge                     :                     0
          spin                       :                   0.0
          first test random number   :      0.38389293087222

   ID    Z sym.   atoms
    1    7 N      1, 11
    2    6 C      2-6, 10, 12-15, 23, 24, 28, 32, 34, 38, 44, 45, 49, 53, 55,
                  59, 65, 66, 70, 74, 76, 80, 86-91, 93, 95, 100, 101
    3    1 H      7-9, 16-18, 20, 25-27, 29-31, 35-37, 39-41, 46-48, 50-52,
                  56-58, 60-62, 67-69, 71-73, 77-79, 81-85, 92, 94, 96, 97,
                  99, 102-108
    4   77 Ir     19
    5    5 B      21, 42, 63
    6    8 O      22, 33, 43, 54, 64, 75
    7   35 Br     98

molecular fragmentation (1/2 indicates fragments):
111111111111111111111111111111111111111111111111111111111111111111111111
111111111111122222222222222222222222
# atoms in fragment 1/2:    85    23
 fragment masses (1/2) :      730.32      212.11
CMA distance (Bohr)    :   9.310
constraining FC (au)   :  0.0500

           -------------------------------------------------
          |                 G F N 2 - x T B                 |
           -------------------------------------------------

        Reference                      10.1021/acs.jctc.8b01176
      * Hamiltonian:
        H0-scaling (s, p, d)           1.850000    2.230000    2.230000
        zeta-weighting                 0.500000
      * Dispersion:
        s8                             2.700000
        a1                             0.520000
        a2                             5.000000
        s9                             5.000000
      * Repulsion:
        kExp                           1.500000    1.000000
        rExp                           1.000000
      * Coulomb:
        alpha                          2.000000
        third order                    shell-resolved
        anisotropic                    true
        a3                             3.000000
        a5                             4.000000
        cn-shift                       1.200000
        cn-exp                         4.000000
        max-rad                        5.000000

      * Solvation model:               ALPB
        Solvent                        thf
        Parameter file                 internal GFN2-xTB/ALPB
        Dielectric constant                7.6000E+00
        Reference state                gsolv [1 M gas/solution]
        Free energy shift                  5.3248E-03 Eh       3.3414E+00 kcal/mol
        Temperature                        2.9815E+02 K
        Density                            8.8300E-01 kg/L
        Solvent mass                       7.2106E+01 g/mol
        Interaction kernel             P16
        Born radius scaling (c1)           1.7311E+00
        Born radii integrator          GBOBC
        Born offset                        0.0000E+00 a0       0.0000E+00 AA
        H-bond correction              true
        Ion screening                  false
        Surface tension                    1.0000E-05 Eh       1.5569E+01 dyn/cm
        Grid points                               230 per atom
q/qsh data taken from xtbrestart
CAMM data taken from xtbrestart

          ...................................................
          :                      SETUP                      :
          :.................................................:
          :  # basis functions                 273          :
          :  # atomic orbitals                 271          :
          :  # shells                          161          :
          :  # electrons                       280          :
          :  max. iterations                   250          :
          :  Hamiltonian                  GFN2-xTB          :
          :  restarted?                       true          :
          :  GBSA solvation                   true          :
          :  PC potential                    false          :
          :  electronic temp.          300.0000000     K    :
          :  accuracy                    1.0000000          :
          :  -> integral cutoff          0.2500000E+02      :
          :  -> integral neglect         0.1000000E-07      :
          :  -> SCF convergence          0.1000000E-05 Eh   :
          :  -> wf. convergence          0.1000000E-03 e    :
          :  Broyden damping             0.4000000          :
          ...................................................

 iter      E             dE          RMSdq      gap      omega  full diag
   1   -154.6463506 -0.154646E+03  0.426E-05    0.91       0.0  T
   2   -154.6463506  0.838440E-11  0.400E-05    0.91     240.3  T
   3   -154.6463506 -0.963496E-11  0.312E-05    0.91     308.5  T

   *** convergence criteria satisfied after 3 iterations ***

         #    Occupation            Energy/Eh            Energy/eV
      -------------------------------------------------------------
         1        2.0000           -0.8218537             -22.3638
       ...           ...                  ...                  ...
       134        2.0000           -0.3770606             -10.2603
       135        2.0000           -0.3535143              -9.6196
       136        2.0000           -0.3343183              -9.0973
       137        2.0000           -0.3278096              -8.9202
       138        2.0000           -0.3208987              -8.7321
       139        2.0000           -0.3149989              -8.5716
       140        2.0000           -0.3117731              -8.4838 (HOMO)
       141                         -0.2782363              -7.5712 (LUMO)
       142                         -0.2506522              -6.8206
       143                         -0.2475413              -6.7359
       144                         -0.2229361              -6.0664
       145                         -0.2186440              -5.9496
       ...                                ...                  ...
       271                          4.0616187             110.5223
      -------------------------------------------------------------
                  HL-Gap            0.0335369 Eh            0.9126 eV
             Fermi-level           -0.2949890 Eh           -8.0271 eV

 SCC (total)                   0 d,  0 h,  0 min,  0.133 sec
 SCC setup                      ...        0 min,  0.003 sec (  2.047%)
 Dispersion                     ...        0 min,  0.002 sec (  1.477%)
 classical contributions        ...        0 min,  0.000 sec (  0.125%)
 integral evaluation            ...        0 min,  0.034 sec ( 25.230%)
 iterations                     ...        0 min,  0.042 sec ( 31.143%)
 molecular gradient             ...        0 min,  0.053 sec ( 39.393%)
 printout                       ...        0 min,  0.001 sec (  0.534%)

         :::::::::::::::::::::::::::::::::::::::::::::::::::::
         ::                     SUMMARY                     ::
         :::::::::::::::::::::::::::::::::::::::::::::::::::::
         :: total energy            -152.678959270892 Eh    ::
         :: total w/o Gsasa/hb      -152.638555028049 Eh    ::
         :: gradient norm              0.026652513903 Eh/a0 ::
         :: HOMO-LUMO gap              0.912584775363 eV    ::
         ::.................................................::
         :: SCC energy              -154.646350582806 Eh    ::
         :: -> isotropic ES            0.240410104381 Eh    ::
         :: -> anisotropic ES          0.011667417509 Eh    ::
         :: -> anisotropic XC          0.049801773183 Eh    ::
         :: -> dispersion             -0.156304885353 Eh    ::
         :: -> Gsolv                  -0.049501005025 Eh    ::
         ::    -> Gelec               -0.009096762182 Eh    ::
         ::    -> Gsasa               -0.043258317726 Eh    ::
         ::    -> Ghb                 -0.002470740561 Eh    ::
         ::    -> Gshift               0.005324815444 Eh    ::
         :: repulsion energy           1.956982810902 Eh    ::
         :: add. restraining           0.000000000000 Eh    ::
         :: total charge               0.000000001452 e     ::
         :::::::::::::::::::::::::::::::::::::::::::::::::::::

           -------------------------------------------------
          |                Property Printout                |
           -------------------------------------------------

    * Orbital Energies and Occupations

         #    Occupation            Energy/Eh            Energy/eV
      -------------------------------------------------------------
         1        2.0000           -0.8218537             -22.3638
       ...           ...                  ...                  ...
       128        2.0000           -0.3974619             -10.8155
       129        2.0000           -0.3908847             -10.6365
       130        2.0000           -0.3904402             -10.6244
       131        2.0000           -0.3895265             -10.5996
       132        2.0000           -0.3863659             -10.5136
       133        2.0000           -0.3853653             -10.4863
       134        2.0000           -0.3770606             -10.2603
       135        2.0000           -0.3535143              -9.6196
       136        2.0000           -0.3343183              -9.0973
       137        2.0000           -0.3278096              -8.9202
       138        2.0000           -0.3208987              -8.7321
       139        2.0000           -0.3149989              -8.5716
       140        2.0000           -0.3117731              -8.4838 (HOMO)
       141                         -0.2782363              -7.5712 (LUMO)
       142                         -0.2506522              -6.8206
       143                         -0.2475413              -6.7359
       144                         -0.2229361              -6.0664
       145                         -0.2186440              -5.9496
       146                         -0.2067004              -5.6246
       147                         -0.1956727              -5.3245
       148                         -0.1817234              -4.9449
       149                         -0.1554889              -4.2311
       150                         -0.1310190              -3.5652
       151                         -0.1280995              -3.4858
       ...                                ...                  ...
       271                          4.0616187             110.5223
      -------------------------------------------------------------
                  HL-Gap            0.0335369 Eh            0.9126 eV
             Fermi-level           -0.2949890 Eh           -8.0271 eV

     #   Z          covCN         q      C6AA      α(0)
     1   7 N        2.524    -0.127    23.801     7.245
     2   6 C        2.953     0.079    26.237     8.401
     3   6 C        2.918    -0.042    29.050     8.839
     4   6 C        2.924    -0.021    28.536     8.760
     5   6 C        2.915    -0.044    29.083     8.843
     6   6 C        2.892     0.050    26.885     8.501
     7   1 H        0.926     0.050     2.317     2.380
     8   1 H        0.926     0.055     2.255     2.348
     9   1 H        0.926     0.046     2.368     2.406
    10   6 C        2.953     0.073    26.374     8.423
    11   7 N        2.561    -0.123    23.701     7.230
    12   6 C        2.889     0.043    27.039     8.525
    13   6 C        2.915    -0.044    29.088     8.844
    14   6 C        2.922    -0.026    28.650     8.778
    15   6 C        2.918    -0.044    29.087     8.844
    16   1 H        0.926     0.045     2.383     2.414
    17   1 H        0.926     0.051     2.306     2.374
    18   1 H        0.926     0.075     2.028     2.227
    19  77 Ir       5.916    -0.145   386.955    36.377
    20   1 H        0.977     0.087     1.905     2.157
    21   5 B        2.624     0.408    15.999     6.763
    22   8 O        1.638    -0.407    20.985     6.184
    23   6 C        3.834     0.130    18.448     6.111
    24   6 C        3.755    -0.121    22.871     6.819
    25   1 H        0.925     0.053     2.286     2.364
    26   1 H        0.925     0.045     2.378     2.412
    27   1 H        0.925     0.052     2.298     2.371
    28   6 C        3.755    -0.111    22.673     6.790
    29   1 H        0.925     0.048     2.339     2.392
    30   1 H        0.925     0.043     2.404     2.424
    31   1 H        0.925     0.029     2.604     2.524
    32   6 C        3.839     0.131    18.426     6.107
    33   8 O        1.637    -0.407    20.989     6.184
    34   6 C        3.755    -0.122    22.893     6.822
    35   1 H        0.925     0.055     2.259     2.351
    36   1 H        0.925     0.046     2.371     2.408
    37   1 H        0.925     0.048     2.349     2.397
    38   6 C        3.755    -0.119    22.841     6.815
    39   1 H        0.925     0.046     2.366     2.405
    40   1 H        0.925     0.052     2.293     2.368
    41   1 H        0.925     0.046     2.368     2.406
    42   5 B        2.619     0.406    16.047     6.778
    43   8 O        1.637    -0.386    20.584     6.124
    44   6 C        3.833     0.130    18.454     6.112
    45   6 C        3.755    -0.124    22.940     6.829
    46   1 H        0.925     0.056     2.251     2.346
    47   1 H        0.925     0.055     2.255     2.348
    48   1 H        0.925     0.049     2.326     2.385
    49   6 C        3.755    -0.120    22.852     6.816
    50   1 H        0.925     0.048     2.344     2.394
    51   1 H        0.925     0.044     2.397     2.421
    52   1 H        0.925     0.052     2.298     2.371
    53   6 C        3.831     0.128    18.481     6.117
    54   8 O        1.637    -0.382    20.509     6.113
    55   6 C        3.755    -0.124    22.927     6.827
    56   1 H        0.925     0.053     2.284     2.364
    57   1 H        0.925     0.055     2.263     2.352
    58   1 H        0.925     0.049     2.336     2.390
    59   6 C        3.755    -0.120    22.863     6.818
    60   1 H        0.925     0.045     2.389     2.417
    61   1 H        0.925     0.053     2.281     2.362
    62   1 H        0.925     0.050     2.314     2.379
    63   5 B        2.628     0.408    15.973     6.754
    64   8 O        1.637    -0.378    20.442     6.103
    65   6 C        3.832     0.126    18.510     6.121
    66   6 C        3.755    -0.127    22.988     6.836
    67   1 H        0.925     0.055     2.258     2.350
    68   1 H        0.925     0.055     2.263     2.352
    69   1 H        0.925     0.049     2.327     2.386
    70   6 C        3.755    -0.129    23.041     6.844
    71   1 H        0.925     0.061     2.188     2.313
    72   1 H        0.925     0.051     2.312     2.378
    73   1 H        0.925     0.053     2.286     2.364
    74   6 C        3.831     0.128    18.480     6.116
    75   8 O        1.637    -0.385    20.564     6.121
    76   6 C        3.755    -0.123    22.919     6.826
    77   1 H        0.925     0.051     2.303     2.373
    78   1 H        0.925     0.053     2.280     2.362
    79   1 H        0.925     0.054     2.269     2.356
    80   6 C        3.755    -0.122    22.890     6.822
    81   1 H        0.925     0.040     2.449     2.447
    82   1 H        0.925     0.049     2.326     2.385
    83   1 H        0.925     0.055     2.256     2.349
    84   1 H        0.926     0.053     2.284     2.363
    85   1 H        0.926     0.049     2.335     2.390
    86   6 C        2.831    -0.035    28.872     8.805
    87   6 C        2.966     0.014    27.704     8.633
    88   6 C        2.994    -0.048    29.185     8.862
    89   6 C        2.931    -0.046    29.137     8.852
    90   6 C        3.812    -0.073    21.891     6.660
    91   6 C        2.917     0.069    26.462     8.436
    92   1 H        0.926     0.057     2.230     2.335
    93   6 C        2.984    -0.051    29.270     8.875
    94   1 H        0.926     0.045     2.382     2.413
    95   6 C        3.849    -0.007    20.676     6.468
    96   1 H        0.924     0.041     2.435     2.440
    97   1 H        0.925     0.057     2.230     2.335
    98  35 Br       1.061    -0.211   190.930    22.279
    99   1 H        0.926     0.046     2.373     2.409
   100   6 C        3.755    -0.105    22.552     6.771
   101   6 C        3.757    -0.109    22.634     6.783
   102   1 H        0.924     0.029     2.604     2.523
   103   1 H        0.925     0.035     2.515     2.480
   104   1 H        0.925     0.027     2.629     2.535
   105   1 H        0.925     0.034     2.525     2.485
   106   1 H        0.925     0.036     2.508     2.477
   107   1 H        0.925     0.028     2.616     2.529
   108   1 H        0.925     0.040     2.444     2.445

 Mol. C6AA /au·bohr⁶  :     126393.424153
 Mol. C8AA /au·bohr⁸  :    3468490.108200
 Mol. α(0) /au        :        550.942932


Wiberg/Mayer (AO) data.
largest (>0.10) Wiberg bond orders for each atom

 ---------------------------------------------------------------------------
     #   Z sym  total        # sym  WBO       # sym  WBO       # sym  WBO
 ---------------------------------------------------------------------------
     1   7 N    3.392 --     6 C    1.393     2 C    1.306    19 Ir   0.423
     2   6 C    3.979 --     3 C    1.349     1 N    1.306    10 C    1.092
     3   6 C    3.988 --     4 C    1.482     2 C    1.349     9 H    0.962
                             6 C    0.105
     4   6 C    3.984 --     3 C    1.482     5 C    1.384    84 H    0.969
     5   6 C    3.978 --     6 C    1.458     4 C    1.384     8 H    0.969
     6   6 C    3.978 --     5 C    1.458     1 N    1.393     7 H    0.958
                             3 C    0.105
     7   1 H    0.997 --     6 C    0.958
     8   1 H    0.996 --     5 C    0.969
     9   1 H    0.997 --     3 C    0.962
    10   6 C    3.978 --    15 C    1.357    11 N    1.293     2 C    1.092
    11   7 N    3.412 --    12 C    1.375    10 C    1.293    19 Ir   0.446
    12   6 C    3.973 --    13 C    1.460    11 N    1.375    18 H    0.948
                            15 C    0.104
    13   6 C    3.982 --    12 C    1.460    14 C    1.382    17 H    0.969
    14   6 C    3.980 --    15 C    1.474    13 C    1.382    85 H    0.969
    15   6 C    3.989 --    14 C    1.474    10 C    1.357    16 H    0.962
                            12 C    0.104
    16   1 H    0.997 --    15 C    0.962
    17   1 H    0.997 --    13 C    0.969
    18   1 H    0.994 --    12 C    0.948
    19  77 Ir   5.141 --    42 B    0.846    63 B    0.838    21 B    0.696
                            86 C    0.599    20 H    0.550    11 N    0.446
                             1 N    0.423
    20   1 H    0.990 --    19 Ir   0.550    86 C    0.332
    21   5 B    3.278 --    33 O    1.112    22 O    1.098    19 Ir   0.696
    22   8 O    2.195 --    21 B    1.098    23 C    0.941
    23   6 C    3.942 --    24 C    0.996    28 C    0.991    22 O    0.941
                            32 C    0.940
    24   6 C    3.994 --    23 C    0.996    26 H    0.983    27 H    0.983
                            25 H    0.983
    25   1 H    0.997 --    24 C    0.983
    26   1 H    0.997 --    24 C    0.983
    27   1 H    0.997 --    24 C    0.983
    28   6 C    3.996 --    23 C    0.991    31 H    0.984    29 H    0.984
                            30 H    0.984
    29   1 H    0.997 --    28 C    0.984
    30   1 H    0.998 --    28 C    0.984
    31   1 H    0.999 --    28 C    0.984
    32   6 C    3.939 --    38 C    0.997    34 C    0.991    23 C    0.940
                            33 O    0.937
    33   8 O    2.199 --    21 B    1.112    32 C    0.937
    34   6 C    3.993 --    32 C    0.991    36 H    0.983    37 H    0.981
                            35 H    0.979
    35   1 H    0.997 --    34 C    0.979
    36   1 H    0.997 --    34 C    0.983
    37   1 H    0.997 --    34 C    0.981
    38   6 C    3.994 --    32 C    0.997    41 H    0.984    39 H    0.983
                            40 H    0.983
    39   1 H    0.998 --    38 C    0.983
    40   1 H    0.997 --    38 C    0.983
    41   1 H    0.997 --    38 C    0.984
    42   5 B    3.336 --    54 O    1.117    43 O    1.114    19 Ir   0.846
    43   8 O    2.226 --    42 B    1.114    44 C    0.935
    44   6 C    3.936 --    45 C    0.997    49 C    0.991    53 C    0.938
                            43 O    0.935
    45   6 C    3.992 --    44 C    0.997    48 H    0.983    46 H    0.982
                            47 H    0.981
    46   1 H    0.997 --    45 C    0.982
    47   1 H    0.997 --    45 C    0.981
    48   1 H    0.996 --    45 C    0.983
    49   6 C    3.994 --    44 C    0.991    50 H    0.983    51 H    0.983
                            52 H    0.979
    50   1 H    0.997 --    49 C    0.983
    51   1 H    0.998 --    49 C    0.983
    52   1 H    0.997 --    49 C    0.979
    53   6 C    3.936 --    55 C    0.996    59 C    0.993    44 C    0.938
                            54 O    0.932
    54   8 O    2.230 --    42 B    1.117    53 C    0.932
    55   6 C    3.993 --    53 C    0.996    58 H    0.983    57 H    0.983
                            56 H    0.982
    56   1 H    0.997 --    55 C    0.982
    57   1 H    0.997 --    55 C    0.983
    58   1 H    0.996 --    55 C    0.983
    59   6 C    3.994 --    53 C    0.993    62 H    0.983    61 H    0.983
                            60 H    0.981
    60   1 H    0.998 --    59 C    0.981
    61   1 H    0.996 --    59 C    0.983
    62   1 H    0.997 --    59 C    0.983
    63   5 B    3.358 --    75 O    1.115    64 O    1.112    19 Ir   0.838
    64   8 O    2.230 --    63 B    1.112    65 C    0.937
    65   6 C    3.937 --    70 C    0.996    66 C    0.992    74 C    0.939
                            64 O    0.937
    66   6 C    3.993 --    65 C    0.992    69 H    0.983    68 H    0.982
                            67 H    0.979
    67   1 H    0.997 --    66 C    0.979
    68   1 H    0.997 --    66 C    0.982
    69   1 H    0.996 --    66 C    0.983
    70   6 C    3.992 --    65 C    0.996    72 H    0.983    73 H    0.982
                            71 H    0.982
    71   1 H    0.996 --    70 C    0.982
    72   1 H    0.996 --    70 C    0.983
    73   1 H    0.997 --    70 C    0.982
    74   6 C    3.934 --    76 C    0.997    80 C    0.991    65 C    0.939
                            75 O    0.933
    75   8 O    2.228 --    63 B    1.115    74 C    0.933
    76   6 C    3.993 --    74 C    0.997    77 H    0.982    79 H    0.982
                            78 H    0.982
    77   1 H    0.996 --    76 C    0.982
    78   1 H    0.997 --    76 C    0.982
    79   1 H    0.997 --    76 C    0.982
    80   6 C    3.995 --    74 C    0.991    81 H    0.984    82 H    0.983
                            83 H    0.983
    81   1 H    0.998 --    80 C    0.984
    82   1 H    0.997 --    80 C    0.983
    83   1 H    0.996 --    80 C    0.983
    84   1 H    0.996 --     4 C    0.969
    85   1 H    0.997 --    14 C    0.969
    86   6 C    3.937 --    88 C    1.365    87 C    1.359    19 Ir   0.599
                            20 H    0.332
    87   6 C    3.986 --    89 C    1.402    86 C    1.359    90 C    1.009
    88   6 C    3.987 --    91 C    1.435    86 C    1.365    92 H    0.954
                            89 C    0.100
    89   6 C    3.986 --    93 C    1.439    87 C    1.402    94 H    0.960
                            88 C    0.100
    90   6 C    3.993 --    87 C    1.009    95 C    0.990    96 H    0.956
                            97 H    0.953
    91   6 C    3.921 --    88 C    1.435    93 C    1.395    98 Br   0.943
    92   1 H    0.996 --    88 C    0.954
    93   6 C    3.984 --    89 C    1.439    91 C    1.395    99 H    0.968
    94   1 H    0.995 --    89 C    0.960
    95   6 C    3.996 --   100 C    1.010   101 C    1.008    90 C    0.990
                           102 H    0.965
    96   1 H    0.997 --    90 C    0.956
    97   1 H    0.996 --    90 C    0.953
    98  35 Br   1.070 --    91 C    0.943
    99   1 H    0.996 --    93 C    0.968
   100   6 C    3.997 --    95 C    1.010   103 H    0.987   104 H    0.984
                           105 H    0.984
   101   6 C    3.996 --    95 C    1.008   106 H    0.987   107 H    0.986
                           108 H    0.986
   102   1 H    0.999 --    95 C    0.965
   103   1 H    0.999 --   100 C    0.987
   104   1 H    0.999 --   100 C    0.984
   105   1 H    0.999 --   100 C    0.984
   106   1 H    0.999 --   101 C    0.987
   107   1 H    0.999 --   101 C    0.986
   108   1 H    0.998 --   101 C    0.986
 ---------------------------------------------------------------------------

Topologies differ in total number of bonds
Writing topology from bond orders to xtbtopo.mol

molecular dipole:
                 x           y           z       tot (Debye)
 q only:       -0.894       0.249      -2.267
   full:       -2.256       0.494      -3.317      10.274
molecular quadrupole (traceless):
                xx          xy          yy          xz          yz          zz
 q only:       16.658       5.661      11.672     -16.310      14.439     -28.329
  q+dip:       17.845       7.466      18.646     -27.396      16.656     -36.491
   full:       16.807       8.484      20.050     -29.120      14.944     -36.857


           -------------------------------------------------
          | TOTAL ENERGY             -152.678959270892 Eh   |
          | GRADIENT NORM               0.026652513903 Eh/α |
          | HOMO-LUMO GAP               0.912584775363 eV   |
           -------------------------------------------------

------------------------------------------------------------------------
 * finished run on 2021/10/08 at 07:33:43.459     
------------------------------------------------------------------------
 total:
 * wall-time:     0 d,  0 h,  0 min,  0.179 sec
 *  cpu-time:     0 d,  0 h,  0 min,  1.051 sec
 * ratio c/w:     5.859 speedup
 SCF:
 * wall-time:     0 d,  0 h,  0 min,  0.135 sec
 *  cpu-time:     0 d,  0 h,  0 min,  0.808 sec
 * ratio c/w:     5.978 speedup

