108
 energy: -152.607997194547 gnorm: 0.088969258868 xtb: 6.4.0 (f63f532)
N        -0.96509999999999   -2.11530000000000   -0.24090000000000
C        -2.24700000000000   -1.69840000000001   -0.36219999999997
C        -3.14039999999995   -2.36820000000003   -1.21200000000004
C        -2.70220000000002   -3.47560000000002   -1.93050000000000
C        -1.37779999999992   -3.89880000000001   -1.78760000000006
C        -0.54290000000000   -3.18669999999999   -0.93509999999993
H         0.49810000000001   -3.45630000000000   -0.78940000000000
H        -0.99570000000000   -4.76030000000000   -2.32770000000002
H        -4.16499999999999   -2.02890000000001   -1.31830000000000
C        -2.62130000000000   -0.50949999999999    0.44099999999997
N        -1.62600000000001    0.07330000000000    1.16020000000002
C        -1.89680000000001    1.15239999999998    1.91690000000000
C        -3.17229999999999    1.70330000000001    1.99650000000002
C        -4.20509999999997    1.11739999999998    1.26269999999998
C        -3.92609999999998    0.00250000000000    0.47819999999994
H        -4.71960000000000   -0.46420000000000   -0.09519999999999
H        -3.34629999999999    2.57510000000000    2.62069999999998
H        -1.04450000000002    1.57420000000001    2.43690000000000
Ir        0.42150000000000   -0.81650000000000    0.91330000000000
H         0.87260000000000   -2.23030000000000    1.54050000000000
B         0.50670000000000    0.41560000000000   -0.81540000000001
O         0.19499999999999   -0.04700000000000   -2.09150000000001
C         0.00650000000000    1.10040000000000   -2.95430000000000
C         0.49019999999996    0.74740000000002   -4.35780000000001
H         1.51610000000004    0.37379999999999   -4.33700000000000
H         0.44730000000000    1.62240000000002   -5.01669999999999
H        -0.14740000000002   -0.03390000000002   -4.78430000000001
C        -1.50119999999999    1.39559999999997   -2.96670000000001
H        -1.75369999999999    2.21459999999999   -3.64850000000000
H        -2.03199999999999    0.49449999999999   -3.28930000000000
H        -1.85170000000000    1.65210000000000   -1.96220000000000
C         0.84230000000003    2.20670000000001   -2.22040000000001
O         0.75200000000000    1.78260000000000   -0.83690000000000
C         2.32929999999995    2.18619999999999   -2.59899999999997
H         2.74130000000000    1.18499999999999   -2.45750000000000
H         2.48870000000002    2.51299999999999   -3.63179999999999
H         2.87200000000000    2.86270000000002   -1.93200000000003
C         0.28439999999995    3.62289999999999   -2.33659999999997
H        -0.72650000000002    3.69040000000000   -1.92910000000000
H         0.92130000000000    4.31480000000001   -1.77609999999999
H         0.26430000000000    3.94810000000000   -3.38320000000000
B         1.56299999999998    0.60960000000000    1.84840000000001
O         2.92780000000002    0.55229999999999    2.15020000000000
C         3.36330000000001    1.88660000000002    2.50259999999991
C         4.53139999999997    1.78590000000003    3.47739999999995
H         4.27910000000000    1.16090000000002    4.33689999999999
H         5.39389999999998    1.33790000000000    2.97340000000002
H         4.82390000000000    2.77869999999999    3.83819999999999
C         3.79700000000000    2.56849999999999    1.19669999999999
H         4.20020000000000    3.57089999999999    1.37679999999999
H         4.56740000000000    1.95560000000000    0.72109999999999
H         2.95240000000002    2.63260000000000    0.50540000000001
C         2.05040000000000    2.50090000000001    3.09319999999997
O         1.03750000000001    1.81620000000004    2.31910000000000
C         1.89100000000000    4.00450000000002    2.88649999999999
H         1.87290000000000    4.25440000000001    1.82410000000002
H         0.94939999999999    4.34260000000000    3.33170000000000
H         2.71079999999999    4.55150000000000    3.36630000000001
C         1.82470000000002    2.13200000000000    4.56520000000004
H         1.92610000000000    1.05329999999996    4.71320000000002
H         2.52610000000001    2.65279999999999    5.22539999999999
H         0.80630000000002    2.41580000000000    4.84899999999999
B         2.27820000000001   -1.33090000000000    0.17410000000001
O         2.89460000000000   -2.57740000000000    0.38450000000000
C         4.26930000000001   -2.48200000000001   -0.07210000000001
C         5.10900000000001   -2.05380000000000    1.14009999999995
H         4.76350000000000   -1.08739999999997    1.51750000000001
H         4.98050000000001   -2.79470000000002    1.93589999999999
H         6.17420000000000   -1.99290000000001    0.89300000000000
C         4.71950000000000   -3.84660000000000   -0.58470000000005
H         4.75280000000000   -4.56129999999999    0.24420000000001
H         5.72329999999999   -3.78370000000000   -1.02010000000000
H         4.03500000000000   -4.23599999999999   -1.34170000000000
C         4.16440000000002   -1.36219999999999   -1.16300000000002
O         3.08520000000000   -0.55029999999999   -0.65399999999999
C         5.40720000000002   -0.48869999999999   -1.31550000000002
H         6.27320000000001   -1.09010000000002   -1.61530000000000
H         5.23300000000000    0.26929999999999   -2.08590000000000
H         5.64269999999998    0.02650000000001   -0.38240000000000
C         3.71800000000006   -1.89830000000002   -2.53109999999992
H         2.82530000000002   -2.52159999999998   -2.42740000000000
H         3.46090000000000   -1.05250000000000   -3.17550000000000
H         4.50569999999998   -2.48289999999997   -3.01789999999999
H        -3.38500000000001   -4.00130000000000   -2.59310000000001
H        -5.21400000000000    1.52080000000001    1.29960000000000
C         0.23590000000002   -1.68140000000001    2.96029999999998
C        -1.10473523413941   -1.84799106895198    3.47525087393551
C         1.25114455156218   -2.04198892273868    3.84876502775370
C        -1.28410973707150   -2.08014021476866    4.84257188157092
C        -2.47862600492613   -2.06491123727579    2.82262868010148
C         1.00758451722212   -2.46446598376601    5.14735563206702
H         2.26641882580643   -2.05857425292354    3.47734149636767
C        -0.25981296666181   -2.42709350507521    5.69871642247710
H        -2.29100635555412   -2.10690698295808    5.23688069447566
C        -3.79410358529813   -1.54534182247287    3.48924648774547
H        -2.60589414365506   -3.15558512453799    2.79286633921973
H        -2.48447452547548   -1.78190538113511    1.78168549773198
Br        2.40156748191283   -3.23903982247246    6.18340147868905
H        -0.47700114514110   -2.73111312987059    6.71365628044415
C        -3.73217681775506   -0.17757478553605    4.18845076571910
C        -5.01542807597693   -1.58161412573913    2.54406375028475
H        -4.04275172171443   -2.27377548468097    4.26764388895278
H        -4.19709734450698   -0.23073463019305    5.17400150507821
H        -4.27993496390570    0.58571961933086    3.63767550568437
H        -2.70760896271204    0.17488156090138    4.30671333643936
H        -4.81508049794597   -2.11067065009683    1.61250838259027
H        -5.35723385947950   -0.57948512358124    2.28823230967971
H        -5.86924702294843   -2.06583521469461    3.01949818736868
108
 energy: -152.625974087497 gnorm: 0.058482830575 xtb: 6.4.0 (f63f532)
N        -0.95817410744650   -2.08543930025602   -0.27386256446162
C        -2.22923469655203   -1.65749901232065   -0.40855602482149
C        -3.13152950769200   -2.35131611744602   -1.22449708562500
C        -2.70415023101927   -3.46491581911282   -1.92547792859256
C        -1.38463217578375   -3.88500322650518   -1.78381862570282
C        -0.55442675144255   -3.16774999085242   -0.94378277292207
H         0.47862885438126   -3.44998925249309   -0.78944203698080
H        -1.00799483911998   -4.74733561657506   -2.31609106765862
H        -4.15387662826871   -2.01970898524295   -1.32572001038802
C        -2.58793437609401   -0.44291850075947    0.35475365389298
N        -1.59769481379547    0.13634826781924    1.07572217615475
C        -1.88243918074186    1.18265198579617    1.85022780267731
C        -3.14825269014410    1.73768879129375    1.92916670821373
C        -4.17136856142236    1.16905876357712    1.18107778754211
C        -3.88752016077044    0.06994834315947    0.38893048804292
H        -4.69169734126649   -0.42709499304981   -0.13534422884562
H        -3.33480893590087    2.57146296628630    2.59468185053845
H        -1.04925701859073    1.57209728881434    2.41858568803424
Ir        0.42150000000000   -0.81650000000000    0.91330000000000
H         0.87260000000000   -2.23030000000000    1.54050000000000
B         0.50001764301461    0.42058647576977   -0.79582246279968
O         0.18294473156934   -0.03649423505469   -2.06885173753418
C         0.01497513741842    1.09721430791400   -2.94705483667058
C         0.49423915219049    0.74811126518999   -4.35257505999180
H         1.51363591129492    0.37199100150488   -4.33094557422027
H         0.45005203744747    1.62284558426613   -5.00221669299461
H        -0.14355651682680   -0.02843821319432   -4.77394562771967
C        -1.49048194429700    1.39883794672035   -2.97087954662295
H        -1.73209898387705    2.21235181715969   -3.65342485527211
H        -2.02097396261476    0.50194184839385   -3.29133831607333
H        -1.83766200473450    1.65320752982144   -1.96909445461911
C         0.83872742848146    2.20591262788973   -2.21448146384992
O         0.75998832745432    1.77721585590427   -0.83782647394563
C         2.32288559391863    2.18881275956576   -2.59904286283738
H         2.72800603534864    1.18953767201838   -2.45073070115239
H         2.47820758234589    2.51170959929661   -3.62785084190756
H         2.86494425330708    2.86199258463701   -1.93552345340645
C         0.28694528954610    3.62277947491368   -2.33926370114394
H        -0.71733154768584    3.69107817588546   -1.92878990056509
H         0.92499703292493    4.30654976713553   -1.78049920832773
H         0.27027447514253    3.93844099098915   -3.38263023336297
B         1.56497296828871    0.61016003763896    1.86557755897106
O         2.92537808976993    0.55974571032011    2.14421245997539
C         3.36352929052140    1.88334584963452    2.51055134293218
C         4.53276727273109    1.78635780390607    3.48248648153736
H         4.27996839695349    1.15972247648393    4.33392261429160
H         5.38803765606538    1.33984962501599    2.97678826983335
H         4.81717388260618    2.77637408483113    3.83819254889111
C         3.79945780001647    2.56879115973397    1.20980578724062
H         4.20168864041145    3.56462593405800    1.39204573602319
H         4.56411612839821    1.95705030793986    0.73362294298462
H         2.95304111204944    2.62313515477337    0.52602941941164
C         2.05318152391460    2.50288839132977    3.09047442212813
O         1.04163020099034    1.80674061009096    2.33597981609846
C         1.89438109793123    4.00543825384849    2.88916530517587
H         1.87187648640386    4.24926140185092    1.83068521871254
H         0.95613476135244    4.33600389992523    3.33355599086430
H         2.71362095560371    4.54245821982248    3.36682947493591
C         1.82829593328773    2.13797641823182    4.56284000316397
H         1.92965304855605    1.06198320406949    4.70236321647239
H         2.52816171248098    2.65701863443204    5.21528008394378
H         0.81348233090442    2.41762526679655    4.84607996360142
B         2.27820000000003   -1.33090000000000    0.17410000000001
O         2.89940463059955   -2.56284508556052    0.39165349130293
C         4.26532269351356   -2.48514840692870   -0.07414645900454
C         5.10821432112580   -2.06033559963125    1.13413501941272
H         4.75454466309336   -1.09957902999359    1.50712586328398
H         4.97767443595824   -2.79608754606290    1.92728146204162
H         6.16672471153042   -2.00080569012188    0.88557742438162
C         4.71899721243905   -3.84838520783546   -0.58375397332978
H         4.74779367297618   -4.55415888893848    0.24546668044656
H         5.71743643239869   -3.77885877901969   -1.01490374524967
H         4.03419125110268   -4.23514519868429   -1.33403530718423
C         4.16669096192270   -1.36255281680934   -1.15593240013075
O         3.07612785757102   -0.56379960405771   -0.65949197937750
C         5.41059793156317   -0.49419079492694   -1.31255030914287
H         6.26746327838201   -1.09903261603035   -1.60851986319361
H         5.23328948398052    0.25824962038406   -2.08011302045535
H         5.63900079139983    0.01950103989302   -0.38290995405800
C         3.72723353670381   -1.90087277518480   -2.52464621166461
H         2.83458075740267   -2.51617321429328   -2.41747496215247
H         3.47052587041349   -1.05881188848610   -3.16647569870291
H         4.51539577149383   -2.47918081566176   -3.00417811367269
H        -3.38352275522039   -3.99217678885976   -2.58177382032248
H        -5.18847037376715    1.53750562427654    1.26397817183572
C         0.23590000000000   -1.68140000000004    2.96029999999999
C        -1.10222369049996   -1.85438092398302    3.49376522408346
C         1.26317780502672   -2.02727173880172    3.84447888087073
C        -1.26237825221726   -2.08678110714214    4.86129766302046
C        -2.47141239088942   -2.08247964603639    2.82541097415321
C         1.03289126323870   -2.44546473148077    5.14582723145868
H         2.27629111775599   -2.03500092463269    3.47035660695265
C        -0.22888153622501   -2.41891944705047    5.70512556552935
H        -2.26182935174273   -2.11907376123683    5.26422115779508
C        -3.78586234908020   -1.57002506711387    3.51365152870508
H        -2.58484390505472   -3.17467860004568    2.79791447393418
H        -2.47713317729106   -1.78733755030165    1.79246067594355
Br        2.44622968153073   -3.20633070353313    6.18153212750900
H        -0.43292485034049   -2.72034152834305    6.72138336308791
C        -3.72110412758067   -0.19832315197140    4.20976943303957
C        -5.01066969717683   -1.62027692522547    2.56907461067391
H        -4.01893562566176   -2.30034844836094    4.29340632515028
H        -4.17724070662688   -0.24988330151278    5.19670643780495
H        -4.27507271489691    0.55827525316965    3.66294272414163
H        -2.69926456186494    0.15647651596041    4.31787516610999
H        -4.80285031496694   -2.14562732630417    1.63953368229898
H        -5.36302964169893   -0.62454639274185    2.31761233845119
H        -5.85375461933078   -2.11376818980635    3.04813844796564
108
 energy: -152.636130702106 gnorm: 0.047297052890 xtb: 6.4.0 (f63f532)
N        -0.94824936728425   -2.05272353851230   -0.30812311378841
C        -2.21000765148214   -1.61169233378649   -0.45978826738178
C        -3.12063483539609   -2.31897615151976   -1.25308946744404
C        -2.70673591015677   -3.44613688653187   -1.93207649531292
C        -1.38979333048020   -3.86859103647716   -1.78801127109307
C        -0.56081929595828   -3.14576215298941   -0.95774573360172
H         0.46425623739714   -3.44517808041648   -0.79152652562209
H        -1.02147965240533   -4.73901158071201   -2.30601812104899
H        -4.14375648564982   -1.99527678401791   -1.34323313298820
C        -2.56267351309410   -0.39428111954323    0.28617820921028
N        -1.57858096558407    0.16544789639685    1.02566384467901
C        -1.86854890292480    1.20470351607009    1.79378591541574
C        -3.12892523988778    1.76421885836862    1.87524618046181
C        -4.15190872792027    1.19881354814853    1.12760422926209
C        -3.86279749260645    0.11341572451706    0.32528838315231
H        -4.66089322612670   -0.37283970584818   -0.20748580415059
H        -3.31668418744531    2.58633641708308    2.54797907992536
H        -1.04719871243646    1.58346283944993    2.38247551487585
Ir        0.42150000000000   -0.81650000000000    0.91330000000000
H         0.87260000000000   -2.23030000000000    1.54050000000000
B         0.51341435541139    0.42700249721942   -0.77896611147868
O         0.17339787092696   -0.02803487928447   -2.04494658530593
C         0.02082183932221    1.09386260578674   -2.93263991037990
C         0.50228087368781    0.74386534911173   -4.33782340635480
H         1.51779910479964    0.36504229050942   -4.31866938042156
H         0.45674841879912    1.62205230867331   -4.97646729835984
H        -0.13885372896587   -0.02628920595217   -4.75807719432126
C        -1.48296925500746    1.40442246683901   -2.97345083629844
H        -1.70788222616121    2.21465269307047   -3.65966104685026
H        -2.01267901117220    0.51033463114109   -3.29505477015282
H        -1.83042557746898    1.66001946415991   -1.97474154763212
C         0.84011734649438    2.20389064957240   -2.20407916600133
O         0.77274608908572    1.77651586683566   -0.83337467937042
C         2.32200089199581    2.19099100853215   -2.59703741783818
H         2.72163359012179    1.19238397273442   -2.44281057069004
H         2.46779020064091    2.50892838799156   -3.62495198668213
H         2.86302479116142    2.86528316792381   -1.93814693157876
C         0.28882139078823    3.62051437282174   -2.33706491442655
H        -0.71180755500289    3.69387978846330   -1.92561654209295
H         0.93089201076807    4.30012197098018   -1.78387717390092
H         0.27619031786174    3.92239221861621   -3.38053687980479
B         1.56996081716694    0.61042214919704    1.88024280711240
O         2.92427168306522    0.56439898309448    2.14142678312671
C         3.36343891779662    1.87891192843598    2.51799796580135
C         4.53157160187789    1.78361000391625    3.49175243476548
H         4.28040411757996    1.15481099377850    4.33838506659496
H         5.38297955906377    1.34096633126046    2.98299881866284
H         4.80732035788403    2.77322424184409    3.84285111318594
C         3.80409490338662    2.57007089096259    1.22253279608812
H         4.20413566456748    3.56134827362117    1.41034653900181
H         4.56642542488085    1.95893148784958    0.74743298033513
H         2.95566465329248    2.61748349560177    0.54425475599376
C         2.05456010696947    2.49996186609991    3.09230952611933
O         1.04581360765574    1.79501698134231    2.35260420848135
C         1.89821959051567    4.00242874946754    2.88966899766810
H         1.87161965328606    4.24424431223370    1.83357108054908
H         0.96356956505399    4.32863319638182    3.33672595745364
H         2.71913209163591    4.52992103842594    3.36580408663040
C         1.83498248067124    2.14356676047668    4.56804107168638
H         1.93627488646471    1.06881645195154    4.70002032969539
H         2.53573183732427    2.66365812892052    5.21200586889775
H         0.82201753248518    2.42167407165984    4.84873785075508
B         2.27820000000003   -1.33090000000000    0.17410000000001
O         2.90033898021256   -2.55044498025433    0.40188100144921
C         4.25760968489281   -2.48661542832086   -0.07103677176956
C         5.10898097356407   -2.06684496250660    1.13226745008205
H         4.74922161762299   -1.10959974354659    1.50199608518569
H         4.97707451776682   -2.80134574876624    1.92221113239374
H         6.16210059350273   -2.00891741814551    0.87815793529248
C         4.71117843400177   -3.85003216563923   -0.58134360230150
H         4.73909038897705   -4.54863031310310    0.24954625071106
H         5.70642429439766   -3.77259108153725   -1.00847084143155
H         4.02752687443056   -4.23728280653225   -1.32809362833590
C         4.16449006925039   -1.36495404476317   -1.14975414060625
O         3.06626146884987   -0.57495235676613   -0.66501325256746
C         5.41096931630309   -0.50045096341378   -1.30369128858225
H         6.25889887501266   -1.11286044292630   -1.59506458227764
H         5.23478098742633    0.24612696586116   -2.07262708618217
H         5.63615360984159    0.01358974874218   -0.37677442891363
C         3.73727678148184   -1.90626355880553   -2.52158982667988
H         2.84456527627500   -2.51638920505436   -2.41158970661602
H         3.48404482462814   -1.06542405549588   -3.16224125010231
H         4.52948518509290   -2.48079411304688   -2.98983980290803
H        -3.39070856725623   -3.98619548556087   -2.56805661410929
H        -5.16172173531160    1.57442767910470    1.20024666613521
C         0.23590000000000   -1.68140000000003    2.96030000000000
C        -1.09184095627834   -1.86521516029196    3.51547463218841
C         1.28259781452374   -2.00373868345014    3.83416561220696
C        -1.23058894067966   -2.09956216867389    4.88323274616244
C        -2.44996378791852   -2.08504865689834    2.82455199455467
C         1.07470242203069   -2.41457288492432    5.14053927595343
H         2.29202908184362   -1.99508438510480    3.45149707818261
C        -0.17947637807441   -2.40632155334039    5.71401708665886
H        -2.22235297070582   -2.14080438689094    5.29997618954605
C        -3.76481721744265   -1.59697879565754    3.53312684581514
H        -2.55307683234806   -3.17802615894091    2.78289039737132
H        -2.44915694024202   -1.76046951408429    1.80119774654884
Br        2.51994421774723   -3.14157453113487    6.17300449044766
H        -0.36175634956924   -2.70045477474352    6.73586583530495
C        -3.69703356656499   -0.21944206081255    4.21820546214666
C        -4.98475183905887   -1.65390928071498    2.58182753948410
H        -3.98092549972457   -2.33040413203335    4.31498164547640
H        -4.14749330877297   -0.26823150795586    5.20754065291359
H        -4.24942289616814    0.53076631261925    3.66121788683575
H        -2.67509057813031    0.12973493047658    4.32255539200849
H        -4.76568663844140   -2.18867417123542    1.66227931298439
H        -5.32780571070686   -0.65804297021618    2.31731302216361
H        -5.82269186774902   -2.15190088327488    3.06519826075701
108
 energy: -152.644108076122 gnorm: 0.042774703410 xtb: 6.4.0 (f63f532)
N        -0.93755102705558   -2.02807848330407   -0.33509310668775
C        -2.19362449531359   -1.57459864593032   -0.50217729854269
C        -3.11060063531902   -2.28441344599333   -1.28601443899540
C        -2.70961597654268   -3.42759694895395   -1.94451397458955
C        -1.39360028735789   -3.85658713864459   -1.79656541207340
C        -0.56122005421439   -3.13030774109008   -0.97244249296740
H         0.45850908694069   -3.44367096769700   -0.79794730702494
H        -1.03403046631204   -4.73871880771170   -2.29961370646803
H        -4.13205478288436   -1.95617914730691   -1.37521651658057
C        -2.53989574926638   -0.35368015761763    0.22798201922377
N        -1.55949210480158    0.19120735543775    0.98495588788966
C        -1.85148515220109    1.23385176319939    1.74622320961690
C        -3.10909212523780    1.80146197496307    1.81969711076762
C        -4.12939894196500    1.24682067832956    1.05624380798908
C        -3.83689294918163    0.16532136207000    0.25108567662902
H        -4.63000148989310   -0.31290078149161   -0.29533326856519
H        -3.29816766252306    2.61662180732659    2.49780106592480
H        -1.03728611356676    1.61058654795639    2.34405995016970
Ir        0.42150000000000   -0.81650000000000    0.91330000000000
H         0.87260000000000   -2.23030000000000    1.54050000000000
B         0.51515799394329    0.43866296186473   -0.76306684865629
O         0.16548067892672   -0.02139579656522   -2.02439915784908
C         0.02481581958926    1.09223344809816   -2.91707886121501
C         0.51221117722196    0.73697528572485   -4.31992869720386
H         1.52592883258320    0.35390566402449   -4.30050109703289
H         0.46955268291515    1.61861717839039   -4.95330640726412
H        -0.13310058732829   -0.02852644435042   -4.74184253154030
C        -1.47764164450961    1.41161508725431   -2.97490913064706
H        -1.68592702514733    2.22084299505033   -3.66666295754197
H        -2.00781054531060    0.51931918993198   -3.29993533669171
H        -1.83216900403805    1.67232545123918   -1.98035512061035
C         0.84501429247085    2.20347973169636   -2.19170124486560
O         0.78734230378251    1.78199582715090   -0.82316149733770
C         2.32518400780455    2.19210899052783   -2.59395583631826
H         2.72397879575024    1.19399709386167   -2.43548958223976
H         2.46151486037023    2.50473521975352   -3.62410126657359
H         2.86686796180478    2.87111095288258   -1.94094654780904
C         0.29265731948587    3.61993782436878   -2.33179953824584
H        -0.70725878369874    3.69852150056399   -1.92008305577376
H         0.93840058197558    4.30136265811090   -1.78564959195283
H         0.28057445015981    3.90930560295906   -3.37835908662941
B         1.57395382384887    0.60639017743366    1.89363789633595
O         2.92611382066439    0.56356194015321    2.14008209556168
C         3.36436826151182    1.87315065297222    2.52457789321343
C         4.53084094418800    1.77812152839360    3.50185749797501
H         4.28112745711238    1.14675720492956    4.34671238290600
H         5.38369868173352    1.34035471120997    2.99173833866713
H         4.79965778422823    2.76909423051226    3.85303115122685
C         3.80964936900002    2.57106602182955    1.23353258801770
H         4.20711081160269    3.56118652019249    1.42839591478212
H         4.57394273848104    1.96173198383869    0.75964340385512
H         2.96132243826638    2.61751710321125    0.55554290630728
C         2.05580902972660    2.49466482219273    3.09809202170848
O         1.04771372316269    1.78355180297601    2.36903930092951
C         1.90057851869840    3.99746438159922    2.89004980242539
H         1.87038498522579    4.23847074047015    1.83393950318741
H         0.96875587835693    4.32484120124096    3.34152890762343
H         2.72550552441406    4.52041072681655    3.36315956284382
C         1.84268788235741    2.14776598572687    4.57797119442212
H         1.94415290749363    1.07336570022078    4.70990365968000
H         2.54662530218860    2.67135429508959    5.21445256585780
H         0.83043133178705    2.42711102734443    4.85842668276048
B         2.27820000000003   -1.33090000000001    0.17410000000002
O         2.89881448516334   -2.54393879941922    0.41410287655302
C         4.24988232726310   -2.48833530943740   -0.06509627252558
C         5.10995456047076   -2.07250237065021    1.13433340252359
H         4.75051410405776   -1.11563550863490    1.50458022791598
H         4.97834895132095   -2.80845342120163    1.92266976212050
H         6.16072832524741   -2.01648633768150    0.87339632571912
C         4.69989140280700   -3.85365150836098   -0.57672141657820
H         4.72895439419151   -4.54962148609852    0.25591329610398
H         5.69454874019739   -3.77194774905726   -1.00316959969453
H         4.01635823810392   -4.24194086667687   -1.32271592033172
C         4.16138858855498   -1.36855994388982   -1.14558687230895
O         3.05859259799177   -0.58137159021332   -0.67193551769965
C         5.41036273122540   -0.50574779065326   -1.29327469587854
H         6.25450628090211   -1.12562192046079   -1.57847474863870
H         5.23964717253469    0.23737457351684   -2.06635426199688
H         5.63337719936192    0.00999837637666   -0.36703290084584
C         3.74682094269544   -1.91315331665808   -2.52085104603731
H         2.85360754383558   -2.52229965782319   -2.41350299930943
H         3.49964089554104   -1.07262931700936   -3.16398467964125
H         4.54484828667095   -2.48743408488792   -2.97777371703812
H        -3.40175809180758   -3.97998340848673   -2.56079646467411
H        -5.13976851173389    1.61924249844591    1.13012442967525
C         0.23590000000000   -1.68140000000001    2.96030000000000
C        -1.07529449667598   -1.88020647994043    3.53504099985676
C         1.30599700160855   -1.97420563420541    3.81917528416666
C        -1.19363289269753   -2.11638480535796    4.90328055418862
C        -2.42041104135905   -2.09021051518042    2.82956084065959
C         1.12528656682823   -2.37468040114884    5.13182966424411
H         2.31016355443944   -1.94578408873523    3.42253209900761
C        -0.12106380189762   -2.39168176999376    5.72192013825690
H        -2.17862756024070   -2.17195160930569    5.33589380942014
C        -3.73357336255998   -1.62454976206029    3.54727816712674
H        -2.51745692930358   -3.18246415129136    2.74906709983810
H        -2.41099963990108   -1.71925658127763    1.81921192311417
Br        2.60939009444315   -3.04974518821785    6.15680499115710
H        -0.27729872490107   -2.67536947690219    6.75177890169671
C        -3.66596332623846   -0.24427766916205    4.22554736953909
C        -4.95146325424812   -1.69548227585320    2.59623905236790
H        -3.93245889681786   -2.36143722435640    4.33070467722447
H        -4.11534551576111   -0.28606062912198    5.21602432703701
H        -4.21408295138139    0.50243017001732    3.65914918481199
H        -2.64220963106944    0.09947577354063    4.32803801345195
H        -4.72352274633094   -2.24265210976186    1.68607150277444
H        -5.28846098271172   -0.70191279084384    2.31470534106618
H        -5.78951265371598   -2.18977633133496    3.08308133386001
108
 energy: -152.650927181306 gnorm: 0.037664194914 xtb: 6.4.0 (f63f532)
N        -0.92937083768742   -2.01166138168138   -0.35501222802656
C        -2.18087491537305   -1.54612319622519   -0.53669982065905
C        -3.10104097848572   -2.25283225793922   -1.31990085599287
C        -2.71169544028128   -3.41081293514826   -1.95874939956742
C        -1.39833501021378   -3.84897461195643   -1.80378538214572
C        -0.56082327328362   -3.12103716004012   -0.98511559854922
H         0.45579039784185   -3.44225922327175   -0.80767362630169
H        -1.04635377959050   -4.74136521840534   -2.29438308028477
H        -4.11772153190809   -1.91141615610332   -1.41850262761489
C        -2.52165221350562   -0.32150855518817    0.18163827712290