      -----------------------------------------------------------      
     |                   =====================                   |     
     |                           x T B                           |     
     |                   =====================                   |     
     |                         S. Grimme                         |     
     |          Mulliken Center for Theoretical Chemistry        |     
     |                    University of Bonn                     |     
      -----------------------------------------------------------      

   * xtb version 6.4.1 (1a32961) compiled by 'knkr256@seskscpg007.prim.scp' on 2021-10-19

   xtb is free software: you can redistribute it and/or modify it under
   the terms of the GNU Lesser General Public License as published by
   the Free Software Foundation, either version 3 of the License, or
   (at your option) any later version.
   
   xtb is distributed in the hope that it will be useful,
   but WITHOUT ANY WARRANTY; without even the implied warranty of
   MERCHANTABILITY or FITNESS FOR A PARTICULAR PURPOSE.  See the
   GNU Lesser General Public License for more details.
   
   Cite this work as:
   * C. Bannwarth, E. Caldeweyher, S. Ehlert, A. Hansen, P. Pracht,
     J. Seibert, S. Spicher, S. Grimme, WIREs Comput. Mol. Sci., 2020, 11,
     e01493. DOI: 10.1002/wcms.1493
   
   for GFN2-xTB:
   * C. Bannwarth, S. Ehlert and S. Grimme., J. Chem. Theory Comput., 2019,
     15, 1652-1671. DOI: 10.1021/acs.jctc.8b01176
   for GFN1-xTB:
   * S. Grimme, C. Bannwarth, P. Shushkov, J. Chem. Theory Comput., 2017,
     13, 1989-2009. DOI: 10.1021/acs.jctc.7b00118
   for GFN0-xTB:
   * P. Pracht, E. Caldeweyher, S. Ehlert, S. Grimme, ChemRxiv, 2019, preprint.
     DOI: 10.26434/chemrxiv.8326202.v1
   for GFN-FF:
   * S. Spicher and S. Grimme, Angew. Chem. Int. Ed., 2020, 59, 15665-15673.
     DOI: 10.1002/anie.202004239
   
   for ALPB and GBSA implicit solvation:
   * S. Ehlert, M. Stahn, S. Spicher, S. Grimme, J. Chem. Theory Comput.,
     2021, 17, 4250-4261. DOI: 10.1021/acs.jctc.1c00471
   
   for DFT-D4:
   * E. Caldeweyher, C. Bannwarth and S. Grimme, J. Chem. Phys., 2017,
     147, 034112. DOI: 10.1063/1.4993215
   * E. Caldeweyher, S. Ehlert, A. Hansen, H. Neugebauer, S. Spicher,
     C. Bannwarth and S. Grimme, J. Chem. Phys., 2019, 150, 154122.
     DOI: 10.1063/1.5090222
   * E. Caldeweyher, J.-M. Mewes, S. Ehlert and S. Grimme, Phys. Chem. Chem. Phys.
     2020, 22, 8499-8512. DOI: 10.1039/D0CP00502A
   
   for sTDA-xTB:
   * S. Grimme and C. Bannwarth, J. Chem. Phys., 2016, 145, 054103.
     DOI: 10.1063/1.4959605
   
   in the mass-spec context:
   * V. Asgeirsson, C. Bauer and S. Grimme, Chem. Sci., 2017, 8, 4879.
     DOI: 10.1039/c7sc00601b
   * J. Koopman and S. Grimme, ACS Omega 2019, 4, 12, 15120-15133.
     DOI: 10.1021/acsomega.9b02011
   
   for metadynamics refer to:
   * S. Grimme, J. Chem. Theory Comput., 2019, 155, 2847-2862
     DOI: 10.1021/acs.jctc.9b00143
   
   for SPH calculations refer to:
   * S. Spicher and S. Grimme, J. Chem. Theory Comput., 2021, 17, 1701-1714
     DOI: 10.1021/acs.jctc.0c01306
   
   with help from (in alphabetical order)
   P. Atkinson, C. Bannwarth, F. Bohle, G. Brandenburg, E. Caldeweyher
   M. Checinski, S. Dohm, S. Ehlert, S. Ehrlich, I. Gerasimov, J. Koopman
   C. Lavigne, S. Lehtola, F. März, M. Müller, F. Musil, H. Neugebauer
   J. Pisarek, C. Plett, P. Pracht, J. Seibert, P. Shushkov, S. Spicher
   M. Stahn, M. Steiner, T. Strunk, J. Stückrath, T. Rose, and J. Unsleber
   
 * started run on 2022/01/14 at 15:05:30.673     

           -------------------------------------------------
          |                Calculation Setup                |
           -------------------------------------------------

          program call               : xtb xtbopt.xyz --sp --alpb thf -P 6
          hostname                   : seskscpg007.prim.scp
          coordinate file            : xtbopt.xyz
          omp threads                :                     6
          number of atoms            :                    96
          number of electrons        :                   264
          charge                     :                     0
          spin                       :                   0.0
          first test random number   :      0.64429677360003

   ID    Z sym.   atoms
    1    7 N      1, 11, 93, 96
    2    6 C      2-6, 10, 12-15, 23, 24, 28, 32, 34, 38, 44, 45, 49, 53, 55,
                  59, 65, 66, 70, 74, 76, 80, 86-89, 91, 95
    3    1 H      7-9, 16-18, 20, 25-27, 29-31, 35-37, 39-41, 46-48, 50-52,
                  56-58, 60-62, 67-69, 71-73, 77-79, 81-85, 92, 94
    4   77 Ir     19
    5    5 B      21, 42, 63
    6    8 O      22, 33, 43, 54, 64, 75
    7   35 Br     90

molecular fragmentation (1/2 indicates fragments):
111111111111111111111111111111111111111111111111111111111111111111111111
111111111111122222222222
# atoms in fragment 1/2:    85    11
 fragment masses (1/2) :      730.32      182.00
CMA distance (Bohr)    :   8.473
constraining FC (au)   :  0.0500

           -------------------------------------------------
          |                 G F N 2 - x T B                 |
           -------------------------------------------------

        Reference                      10.1021/acs.jctc.8b01176
      * Hamiltonian:
        H0-scaling (s, p, d)           1.850000    2.230000    2.230000
        zeta-weighting                 0.500000
      * Dispersion:
        s8                             2.700000
        a1                             0.520000
        a2                             5.000000
        s9                             5.000000
      * Repulsion:
        kExp                           1.500000    1.000000
        rExp                           1.000000
      * Coulomb:
        alpha                          2.000000
        third order                    shell-resolved
        anisotropic                    true
        a3                             3.000000
        a5                             4.000000
        cn-shift                       1.200000
        cn-exp                         4.000000
        max-rad                        5.000000

      * Solvation model:               ALPB
        Solvent                        thf
        Parameter file                 internal GFN2-xTB/ALPB
        Dielectric constant                7.6000E+00
        Reference state                gsolv [1 M gas/solution]
        Free energy shift                  5.3248E-03 Eh       3.3414E+00 kcal/mol
        Temperature                        2.9815E+02 K
        Density                            8.8300E-01 kg/L
        Solvent mass                       7.2106E+01 g/mol
        Interaction kernel             P16
        Born radius scaling (c1)           1.7311E+00
        Born radii integrator          GBOBC
        Born offset                        0.0000E+00 a0       0.0000E+00 AA
        H-bond correction              true
        Ion screening                  false
        Surface tension                    1.0000E-05 Eh       1.5569E+01 dyn/cm
        Grid points                               230 per atom
q/qsh data taken from xtbrestart
CAMM data taken from xtbrestart

          ...................................................
          :                      SETUP                      :
          :.................................................:
          :  # basis functions                 255          :
          :  # atomic orbitals                 253          :
          :  # shells                          147          :
          :  # electrons                       264          :
          :  max. iterations                   250          :
          :  Hamiltonian                  GFN2-xTB          :
          :  restarted?                       true          :
          :  GBSA solvation                   true          :
          :  PC potential                    false          :
          :  electronic temp.          300.0000000     K    :
          :  accuracy                    1.0000000          :
          :  -> integral cutoff          0.2500000E+02      :
          :  -> integral neglect         0.1000000E-07      :
          :  -> SCF convergence          0.1000000E-05 Eh   :
          :  -> wf. convergence          0.1000000E-03 e    :
          :  Broyden damping             0.4000000          :
          ...................................................

 iter      E             dE          RMSdq      gap      omega  full diag
   1   -146.6688087 -0.146669E+03  0.276E-05    1.04       0.0  T
   2   -146.6688087  0.181984E-09  0.486E-05    1.04     210.1  T
   3   -146.6688087 -0.226038E-09  0.139E-05    1.04     734.6  T

   *** convergence criteria satisfied after 3 iterations ***

         #    Occupation            Energy/Eh            Energy/eV
      -------------------------------------------------------------
         1        2.0000           -0.8370298             -22.7767
       ...           ...                  ...                  ...
       126        2.0000           -0.3869436             -10.5293
       127        2.0000           -0.3623247              -9.8594
       128        2.0000           -0.3483067              -9.4779
       129        2.0000           -0.3404993              -9.2655
       130        2.0000           -0.3332255              -9.0675
       131        2.0000           -0.3267519              -8.8914
       132        2.0000           -0.3235714              -8.8048 (HOMO)
       133                         -0.2852017              -7.7607 (LUMO)
       134                         -0.2831249              -7.7042
       135                         -0.2585260              -7.0348
       136                         -0.2559719              -6.9654
       137                         -0.2525693              -6.8728
       ...                                ...                  ...
       253                          3.8713660             105.3452
      -------------------------------------------------------------
                  HL-Gap            0.0383696 Eh            1.0441 eV
             Fermi-level           -0.3044207 Eh           -8.2837 eV

 SCC (total)                   0 d,  0 h,  0 min,  0.093 sec
 SCC setup                      ...        0 min,  0.003 sec (  3.238%)
 Dispersion                     ...        0 min,  0.003 sec (  2.920%)
 classical contributions        ...        0 min,  0.000 sec (  0.161%)
 integral evaluation            ...        0 min,  0.012 sec ( 12.673%)
 iterations                     ...        0 min,  0.037 sec ( 39.671%)
 molecular gradient             ...        0 min,  0.038 sec ( 40.492%)
 printout                       ...        0 min,  0.001 sec (  0.784%)

         :::::::::::::::::::::::::::::::::::::::::::::::::::::
         ::                     SUMMARY                     ::
         :::::::::::::::::::::::::::::::::::::::::::::::::::::
         :: total energy            -144.813520238794 Eh    ::
         :: total w/o Gsasa/hb      -144.772500804556 Eh    ::
         :: gradient norm              0.029746829710 Eh/a0 ::
         :: HOMO-LUMO gap              1.044091133494 eV    ::
         ::.................................................::
         :: SCC energy              -146.668808662287 Eh    ::
         :: -> isotropic ES            0.252265601788 Eh    ::
         :: -> anisotropic ES          0.007595329524 Eh    ::
         :: -> anisotropic XC          0.061265630927 Eh    ::
         :: -> dispersion             -0.141180055739 Eh    ::
         :: -> Gsolv                  -0.052784262867 Eh    ::
         ::    -> Gelec               -0.011764828630 Eh    ::
         ::    -> Gsasa               -0.043678150720 Eh    ::
         ::    -> Ghb                 -0.002666098962 Eh    ::
         ::    -> Gshift               0.005324815444 Eh    ::
         :: repulsion energy           1.846626012676 Eh    ::
         :: add. restraining           0.000000000000 Eh    ::
         :: total charge              -0.000000000262 e     ::
         :::::::::::::::::::::::::::::::::::::::::::::::::::::

           -------------------------------------------------
          |                Property Printout                |
           -------------------------------------------------

    * Orbital Energies and Occupations

         #    Occupation            Energy/Eh            Energy/eV
      -------------------------------------------------------------
         1        2.0000           -0.8370298             -22.7767
       ...           ...                  ...                  ...
       120        2.0000           -0.4101922             -11.1619
       121        2.0000           -0.4040706             -10.9953
       122        2.0000           -0.3996106             -10.8740
       123        2.0000           -0.3952533             -10.7554
       124        2.0000           -0.3931299             -10.6976
       125        2.0000           -0.3912471             -10.6464
       126        2.0000           -0.3869436             -10.5293
       127        2.0000           -0.3623247              -9.8594
       128        2.0000           -0.3483067              -9.4779
       129        2.0000           -0.3404993              -9.2655
       130        2.0000           -0.3332255              -9.0675
       131        2.0000           -0.3267519              -8.8914
       132        2.0000           -0.3235714              -8.8048 (HOMO)
       133                         -0.2852017              -7.7607 (LUMO)
       134                         -0.2831249              -7.7042
       135                         -0.2585260              -7.0348
       136                         -0.2559719              -6.9654
       137                         -0.2525693              -6.8728
       138                         -0.2203192              -5.9952
       139                         -0.2136882              -5.8148
       140                         -0.2133459              -5.8054
       141                         -0.2033437              -5.5333
       142                         -0.1825549              -4.9676
       143                         -0.1633524              -4.4450
       ...                                ...                  ...
       253                          3.8713660             105.3452
      -------------------------------------------------------------
                  HL-Gap            0.0383696 Eh            1.0441 eV
             Fermi-level           -0.3044207 Eh           -8.2837 eV

     #   Z          covCN         q      C6AA      α(0)
     1   7 N        2.533    -0.112    23.489     7.198
     2   6 C        2.956     0.086    26.077     8.376
     3   6 C        2.919    -0.039    28.960     8.825
     4   6 C        2.925    -0.017    28.446     8.747
     5   6 C        2.915    -0.039    28.975     8.827
     6   6 C        2.894     0.050    26.871     8.499
     7   1 H        0.926     0.055     2.255     2.348
     8   1 H        0.926     0.065     2.142     2.289
     9   1 H        0.926     0.057     2.229     2.335
    10   6 C        2.953     0.084    26.124     8.383
    11   7 N        2.555    -0.123    23.697     7.230
    12   6 C        2.891     0.044    27.005     8.520
    13   6 C        2.915    -0.042    29.032     8.836
    14   6 C        2.923    -0.019    28.490     8.753
    15   6 C        2.919    -0.041    29.022     8.834
    16   1 H        0.926     0.059     2.211     2.325
    17   1 H        0.926     0.058     2.227     2.334
    18   1 H        0.926     0.069     2.097     2.265
    19  77 Ir       5.924    -0.135   385.749    36.320
    20   1 H        0.977     0.088     1.898     2.153
    21   5 B        2.632     0.407    15.970     6.750
    22   8 O        1.638    -0.404    20.929     6.175
    23   6 C        3.838     0.130    18.449     6.110
    24   6 C        3.755    -0.124    22.935     6.829
    25   1 H        0.925     0.056     2.251     2.346
    26   1 H        0.925     0.048     2.340     2.392
    27   1 H        0.925     0.054     2.268     2.355
    28   6 C        3.754    -0.113    22.710     6.795
    29   1 H        0.925     0.052     2.300     2.372
    30   1 H        0.925     0.045     2.381     2.413
    31   1 H        0.925     0.029     2.598     2.520
    32   6 C        3.841     0.131    18.434     6.108
    33   8 O        1.637    -0.400    20.858     6.165
    34   6 C        3.755    -0.122    22.895     6.823
    35   1 H        0.925     0.051     2.304     2.373
    36   1 H        0.925     0.050     2.320     2.382
    37   1 H        0.925     0.050     2.317     2.380
    38   6 C        3.754    -0.121    22.878     6.820
    39   1 H        0.925     0.049     2.337     2.391
    40   1 H        0.925     0.054     2.271     2.357
    41   1 H        0.925     0.049     2.336     2.390
    42   5 B        2.622     0.404    16.052     6.776
    43   8 O        1.637    -0.383    20.535     6.117
    44   6 C        3.834     0.129    18.470     6.114
    45   6 C        3.755    -0.125    22.955     6.832
    46   1 H        0.925     0.049     2.331     2.388
    47   1 H        0.925     0.059     2.209     2.324
    48   1 H        0.925     0.053     2.289     2.366
    49   6 C        3.755    -0.123    22.914     6.825
    50   1 H        0.925     0.051     2.303     2.373
    51   1 H        0.925     0.048     2.347     2.396
    52   1 H        0.925     0.055     2.253     2.347
    53   6 C        3.829     0.128    18.480     6.117
    54   8 O        1.637    -0.387    20.601     6.127
    55   6 C        3.755    -0.125    22.948     6.830
    56   1 H        0.925     0.056     2.242     2.341
    57   1 H        0.925     0.055     2.261     2.351
    58   1 H        0.925     0.051     2.305     2.374
    59   6 C        3.755    -0.118    22.819     6.811
    60   1 H        0.925     0.033     2.550     2.497
    61   1 H        0.925     0.056     2.247     2.344
    62   1 H        0.925     0.050     2.317     2.380
    63   5 B        2.630     0.402    16.029     6.764
    64   8 O        1.637    -0.380    20.471     6.107
    65   6 C        3.833     0.126    18.515     6.122
    66   6 C        3.755    -0.128    23.023     6.842
    67   1 H        0.925     0.056     2.243     2.342
    68   1 H        0.925     0.053     2.281     2.362
    69   1 H        0.925     0.052     2.295     2.369
    70   6 C        3.755    -0.130    23.048     6.845
    71   1 H        0.925     0.060     2.200     2.320
    72   1 H        0.925     0.053     2.285     2.364
    73   1 H        0.925     0.054     2.274     2.358
    74   6 C        3.831     0.127    18.498     6.119
    75   8 O        1.637    -0.380    20.470     6.107
    76   6 C        3.755    -0.125    22.961     6.832
    77   1 H        0.925     0.053     2.285     2.364
    78   1 H        0.925     0.056     2.247     2.344
    79   1 H        0.925     0.055     2.258     2.350
    80   6 C        3.755    -0.124    22.940     6.829
    81   1 H        0.925     0.041     2.438     2.442
    82   1 H        0.925     0.054     2.270     2.356
    83   1 H        0.925     0.057     2.237     2.339
    84   1 H        0.926     0.064     2.153     2.294
    85   1 H        0.926     0.061     2.183     2.310
    86   6 C        2.874    -0.029    28.715     8.784
    87   6 C        2.919     0.063    26.597     8.457
    88   6 C        2.937    -0.037    28.923     8.820
    89   6 C        3.010     0.052    26.820     8.495
    90  35 Br       1.072    -0.178   189.992    22.224
    91   6 C        2.964     0.094    25.908     8.349
    92   1 H        0.926     0.063     2.167     2.302
    93   7 N        1.846    -0.253    27.435     7.763
    94   1 H        0.925     0.060     2.203     2.321
    95   6 C        1.914     0.117    28.210     8.578
    96   7 N        0.911    -0.244    26.354     7.425

 Mol. C6AA /au·bohr⁶  :     109038.666741
 Mol. C8AA /au·bohr⁸  :    3062533.044493
 Mol. α(0) /au        :        512.673281


Wiberg/Mayer (AO) data.
largest (>0.10) Wiberg bond orders for each atom

 ---------------------------------------------------------------------------
     #   Z sym  total        # sym  WBO       # sym  WBO       # sym  WBO
 ---------------------------------------------------------------------------
     1   7 N    3.407 --     6 C    1.398     2 C    1.325    19 Ir   0.420
     2   6 C    3.978 --     3 C    1.360     1 N    1.325    10 C    1.076
     3   6 C    3.987 --     4 C    1.472     2 C    1.360     9 H    0.961
                             6 C    0.105
     4   6 C    3.984 --     3 C    1.472     5 C    1.400    84 H    0.967
     5   6 C    3.979 --     6 C    1.448     4 C    1.400     8 H    0.967
     6   6 C    3.977 --     5 C    1.448     1 N    1.398     7 H    0.956
                             3 C    0.105
     7   1 H    0.996 --     6 C    0.956
     8   1 H    0.995 --     5 C    0.967
     9   1 H    0.996 --     3 C    0.961
    10   6 C    3.978 --    15 C    1.365    11 N    1.315     2 C    1.076
    11   7 N    3.419 --    12 C    1.393    10 C    1.315    19 Ir   0.430
    12   6 C    3.974 --    13 C    1.448    11 N    1.393    18 H    0.950
                            15 C    0.104
    13   6 C    3.981 --    12 C    1.448    14 C    1.399    17 H    0.968
    14   6 C    3.983 --    15 C    1.468    13 C    1.399    85 H    0.968
    15   6 C    3.988 --    14 C    1.468    10 C    1.365    16 H    0.960
                            12 C    0.104
    16   1 H    0.996 --    15 C    0.960
    17   1 H    0.996 --    13 C    0.968
    18   1 H    0.995 --    12 C    0.950
    19  77 Ir   5.120 --    63 B    0.840    42 B    0.831    21 B    0.728
                            86 C    0.615    20 H    0.537    11 N    0.430
                             1 N    0.420
    20   1 H    0.989 --    19 Ir   0.537    86 C    0.343
    21   5 B    3.286 --    33 O    1.122    22 O    1.103    19 Ir   0.728
    22   8 O    2.201 --    21 B    1.103    23 C    0.937
    23   6 C    3.940 --    24 C    0.997    28 C    0.991    32 C    0.941
                            22 O    0.937
    24   6 C    3.993 --    23 C    0.997    26 H    0.983    27 H    0.983
                            25 H    0.982
    25   1 H    0.997 --    24 C    0.982
    26   1 H    0.996 --    24 C    0.983
    27   1 H    0.997 --    24 C    0.983
    28   6 C    3.996 --    23 C    0.991    31 H    0.985    30 H    0.984
                            29 H    0.983
    29   1 H    0.996 --    28 C    0.983
    30   1 H    0.998 --    28 C    0.984
    31   1 H    0.999 --    28 C    0.985
    32   6 C    3.937 --    38 C    0.997    34 C    0.991    23 C    0.941
                            33 O    0.934
    33   8 O    2.210 --    21 B    1.122    32 C    0.934
    34   6 C    3.994 --    32 C    0.991    36 H    0.983    37 H    0.982
                            35 H    0.982
    35   1 H    0.997 --    34 C    0.982
    36   1 H    0.997 --    34 C    0.983
    37   1 H    0.997 --    34 C    0.982
    38   6 C    3.994 --    32 C    0.997    41 H    0.983    39 H    0.983
                            40 H    0.982
    39   1 H    0.998 --    38 C    0.983
    40   1 H    0.997 --    38 C    0.982
    41   1 H    0.996 --    38 C    0.983
    42   5 B    3.335 --    43 O    1.127    54 O    1.113    19 Ir   0.831
    43   8 O    2.231 --    42 B    1.127    44 C    0.933
    44   6 C    3.934 --    45 C    0.997    49 C    0.992    53 C    0.938
                            43 O    0.933
    45   6 C    3.992 --    44 C    0.997    48 H    0.983    46 H    0.982
                            47 H    0.981
    46   1 H    0.997 --    45 C    0.982
    47   1 H    0.996 --    45 C    0.981
    48   1 H    0.996 --    45 C    0.983
    49   6 C    3.993 --    44 C    0.992    50 H    0.983    51 H    0.982
                            52 H    0.979
    50   1 H    0.996 --    49 C    0.983
    51   1 H    0.997 --    49 C    0.982
    52   1 H    0.997 --    49 C    0.979
    53   6 C    3.935 --    55 C    0.996    59 C    0.993    44 C    0.938
                            54 O    0.931
    54   8 O    2.226 --    42 B    1.113    53 C    0.931
    55   6 C    3.992 --    53 C    0.996    57 H    0.983    58 H    0.983
                            56 H    0.982
    56   1 H    0.997 --    55 C    0.982
    57   1 H    0.997 --    55 C    0.983
    58   1 H    0.996 --    55 C    0.983
    59   6 C    3.994 --    53 C    0.993    62 H    0.983    61 H    0.982
                            60 H    0.982
    60   1 H    0.999 --    59 C    0.982
    61   1 H    0.996 --    59 C    0.982
    62   1 H    0.997 --    59 C    0.983
    63   5 B    3.364 --    75 O    1.127    64 O    1.117    19 Ir   0.840
    64   8 O    2.230 --    63 B    1.117    65 C    0.934
    65   6 C    3.935 --    70 C    0.997    66 C    0.992    74 C    0.938
                            64 O    0.934
    66   6 C    3.992 --    65 C    0.992    69 H    0.983    68 H    0.982
                            67 H    0.979
    67   1 H    0.997 --    66 C    0.979
    68   1 H    0.997 --    66 C    0.982
    69   1 H    0.996 --    66 C    0.983
    70   6 C    3.992 --    65 C    0.997    72 H    0.983    73 H    0.982
                            71 H    0.982
    71   1 H    0.996 --    70 C    0.982
    72   1 H    0.996 --    70 C    0.983
    73   1 H    0.997 --    70 C    0.982
    74   6 C    3.933 --    76 C    0.997    80 C    0.992    65 C    0.938
                            75 O    0.931
    75   8 O    2.236 --    63 B    1.127    74 C    0.931
    76   6 C    3.992 --    74 C    0.997    77 H    0.982    79 H    0.982
                            78 H    0.982
    77   1 H    0.996 --    76 C    0.982
    78   1 H    0.997 --    76 C    0.982
    79   1 H    0.997 --    76 C    0.982
    80   6 C    3.994 --    74 C    0.992    81 H    0.983    83 H    0.983
                            82 H    0.983
    81   1 H    0.998 --    80 C    0.983
    82   1 H    0.997 --    80 C    0.983
    83   1 H    0.996 --    80 C    0.983
    84   1 H    0.995 --     4 C    0.967
    85   1 H    0.995 --    14 C    0.968
    86   6 C    3.914 --    87 C    1.350    88 C    1.343    19 Ir   0.615
                            20 H    0.343
    87   6 C    3.930 --    89 C    1.385    86 C    1.350    90 Br   0.963
    88   6 C    3.987 --    91 C    1.392    86 C    1.343    92 H    0.955
    89   6 C    3.977 --    93 N    1.458    87 C    1.385    94 H    0.957
    90  35 Br   1.121 --    87 C    0.963
    91   6 C    3.979 --    88 C    1.392    93 N    1.317    95 C    1.079
    92   1 H    0.996 --    88 C    0.955
    93   7 N    3.058 --    89 C    1.458    91 C    1.317
    94   1 H    0.993 --    89 C    0.957
    95   6 C    3.937 --    96 N    2.802    91 C    1.079
    96   7 N    2.985 --    95 C    2.802
 ---------------------------------------------------------------------------

Topologies differ in total number of bonds
Writing topology from bond orders to xtbtopo.mol

molecular dipole:
                 x           y           z       tot (Debye)
 q only:       -0.437       1.094      -3.804
   full:       -1.132       1.545      -4.390      12.174
molecular quadrupole (traceless):
                xx          xy          yy          xz          yz          zz
 q only:       27.496      -2.001      14.321     -10.702      24.106     -41.818
  q+dip:       29.197      -7.665      17.341     -15.171      28.511     -46.538
   full:       26.676      -6.889      21.119     -17.620      25.522     -47.795


           -------------------------------------------------
          | TOTAL ENERGY             -144.813520238794 Eh   |
          | GRADIENT NORM               0.029746829710 Eh/α |
          | HOMO-LUMO GAP               1.044091133494 eV   |
           -------------------------------------------------

------------------------------------------------------------------------
 * finished run on 2022/01/14 at 15:05:30.797     
------------------------------------------------------------------------
 total:
 * wall-time:     0 d,  0 h,  0 min,  0.124 sec
 *  cpu-time:     0 d,  0 h,  0 min,  0.723 sec
 * ratio c/w:     5.841 speedup
 SCF:
 * wall-time:     0 d,  0 h,  0 min,  0.095 sec
 *  cpu-time:     0 d,  0 h,  0 min,  0.565 sec
 * ratio c/w:     5.962 speedup

