25
 energy: -37.003975279504 gnorm: 0.060698562939 xtb: 6.4.1 (1a32961)
C        -1.12139000000000   -0.14882000000000    0.04608000000000
C        -0.87791000000000    1.18214000000000   -0.22382000000000
C        -1.56931000000000    1.50624000000000   -1.41107000000000
C        -2.20844000000000    0.36360000000000   -1.82983000000000
N        -1.93982000000000   -0.67142000000000   -0.94309000000000
C        -2.44116000000000   -1.97967000000000   -1.08397000000000
O        -3.13806000000000   -2.26787000000000   -2.04387000000000
O        -2.05592000000000   -2.77717000000000   -0.04924000000000
C        -2.53978000000000   -4.14768000000000   -0.03119000000000
C        -2.00715000000000   -4.94132000000000   -1.23305000000000
C        -1.98015000000000   -4.79073000000000    1.24867000000000
C        -4.07259000000000   -4.18846000000000    0.05488000000000
H        -0.77586000000000   -0.77430000000000    0.85988000000000
H        -0.26783000000000    1.85139000000000    0.37003000000000
H        -1.60204000000000    2.46563000000000   -1.91229000000000
H        -2.84336000000000    0.18073000000000   -2.68889000000000
H        -0.91161000000000   -4.91571000000000   -1.25776000000000
H        -2.34647000000000   -4.53192000000000   -2.18823000000000
H        -2.32806000000000   -5.98776000000000   -1.19327000000000
H        -0.88463000000000   -4.77854000000000    1.25175000000000
H        -2.31144000000000   -5.83114000000000    1.34972000000000
H        -2.30271000000000   -4.24048000000000    2.13959000000000
H        -4.55288000000000   -3.75588000000000   -0.82677000000000
H        -4.42439000000000   -3.60807000000000    0.91572000000000
H        -4.43991000000000   -5.21516000000000    0.15402000000000
25
 energy: -37.009012803904 gnorm: 0.022689816818 xtb: 6.4.1 (1a32961)
C        -1.12080672326606   -0.16818091698974    0.05354098341109
C        -0.88376935093526    1.14717344507175   -0.21532251953967
C        -1.57646198996065    1.47153672291593   -1.40798225241564
C        -2.20990981235812    0.34300709411823   -1.82823325139395
N        -1.93960296034985   -0.67907033382571   -0.93472779408469
C        -2.44371865946977   -1.97398254841964   -1.07585771362203
O        -3.12802318163702   -2.26640810697094   -2.02604403401705
O        -2.07049873904933   -2.77473591326961   -0.06536340409038
C        -2.54422643500025   -4.15299719756551   -0.03236704602069
C        -2.01246663689358   -4.92759339737852   -1.24001690904678
C        -1.96656758872269   -4.75994787371141    1.25179869365587
C        -4.07244986457017   -4.18001985222672    0.04288555828383
H        -0.77817627953173   -0.78769333910722    0.85959496987309
H        -0.28018123504064    1.81381522083407    0.37349136174242
H        -1.60633152810808    2.42649850006936   -1.90066760169764
H        -2.83787496831985    0.16387502151155   -2.68121182312884
H        -0.92168568816105   -4.90030883053178   -1.25224166757020
H        -2.37615186189026   -4.51134001750672   -2.17918280334930
H        -2.33388036020558   -5.96533558873047   -1.17782563262939
H        -0.87713111669733   -4.74841568182623    1.23619892423217
H        -2.30086266630808   -5.79186073735317    1.33887969488281
H        -2.30408192605925   -4.21033192419475    2.13015403105881
H        -4.52922762296493   -3.75631765201719   -0.85118302028495
H        -4.41318075939856   -3.60674306527165    0.90656926405229
H        -4.41560204510189   -5.20699302762394    0.14911399169882
25
 energy: -37.009968813908 gnorm: 0.007974367000 xtb: 6.4.1 (1a32961)
C        -1.12386161931309   -0.18733767837493    0.06032971393463
C        -0.88540544374567    1.12194955404546   -0.20369689615434
C        -1.57821217513236    1.45088872850719   -1.40056623775288
C        -2.21150176193323    0.32978631454325   -1.82382916822375
N        -1.93927361718819   -0.68832836970609   -0.93199132933429
C        -2.44189582950067   -1.97373290162235   -1.07963533521848
O        -3.12977074939304   -2.27194870509908   -2.02396316963149
O        -2.07844268318924   -2.76641509007978   -0.07963436255309
C        -2.54724185220742   -4.15124721523917   -0.03433456272971
C        -2.01879432731039   -4.92293137385263   -1.24234883028933
C        -1.95656882869154   -4.73147340586861    1.25246388757656
C        -4.07335938213388   -4.18156895107542    0.03654917673027
H        -0.78542673814806   -0.81094469393253    0.85998750247189
H        -0.28356687701629    1.78670440780729    0.38267609601687
H        -1.60052974056473    2.40614516751076   -1.88523223820012
H        -2.83437586293985    0.15061623804746   -2.67533678782270
H        -0.93171560148300   -4.88607618242105   -1.25940071473298
H        -2.40180681806507   -4.50179924832237   -2.16841678268176
H        -2.33532134625168   -5.95874692379804   -1.17197931988739
H        -0.87124217933094   -4.70503467730308    1.22177225312739
H        -2.28121986690168   -5.76254378486517    1.34948408956384
H        -2.29887914643297   -4.17041919892614    2.11714839211633
H        -4.51163010323374   -3.76549391380124   -0.86686973707040
H        -4.41440691356420   -3.60450992650384    0.89339421378495
H        -4.40842053632907   -5.20790816966990    0.14743014695997
25
 energy: -37.010189370282 gnorm: 0.003649144398 xtb: 6.4.1 (1a32961)
C        -1.12678019685571   -0.20128931245913    0.06190134288742
C        -0.88337155382530    1.10867187614894   -0.19546896816609
C        -1.57284948780829    1.44502650157928   -1.39412020767405
C        -2.20778578361922    0.32690482893314   -1.82368650349871
N        -1.94249367457638   -0.69368920675666   -0.93397461622194
C        -2.45112709075683   -1.97380356236747   -1.08342220883332
O        -3.13711640018020   -2.27372252084052   -2.03149760757946
O        -2.08716882522851   -2.76428158425205   -0.08746853784587
C        -2.54991611111668   -4.15280961882616   -0.03587548881552
C        -2.02252459379001   -4.92342193248286   -1.24482308596044
C        -1.94837601746176   -4.71209005646140    1.25448586831319
C        -4.07586931824652   -4.18620882079897    0.03365202507279
H        -0.79426981912276   -0.83212471528467    0.85901693212544
H        -0.28287738655142    1.77152675238162    0.39416895090839
H        -1.58992010789135    2.40426437909002   -1.87077343342141
H        -2.83000141463194    0.14913154929481   -2.67607470787592
H        -0.93637003930627   -4.87739369685650   -1.27075056676765
H        -2.41725820725118   -4.50525034755234   -2.16677919630689
H        -2.33156862849889   -5.96099175006328   -1.16996157392734
H        -0.86385075236810   -4.67068077111159    1.21631808519609
H        -2.26025706658213   -5.74545998751899    1.36822897646079
H        -2.29228835524092   -4.14036079747404    2.11131474321324
H        -4.50988503790022   -3.77767426852791   -0.87463464904090
H        -4.42148571923541   -3.60375190730272    0.88447290653198
H        -4.40745841195401   -5.21289103049058    0.14975152122619
25
 energy: -37.010322840648 gnorm: 0.003465277991 xtb: 6.4.1 (1a32961)
C        -1.13146260634780   -0.21285015557071    0.06242550894575
C        -0.88198212271255    1.09837852170922   -0.18766070572457
C        -1.56684072684460    1.44363683044906   -1.38708193513996
C        -2.20553174396205    0.32930803708923   -1.82353099424133
N        -1.94514918455253   -0.69712884320423   -0.93938120584616
C        -2.45568654363082   -1.97537926974404   -1.09255764656404
O        -3.14583586766404   -2.27265844448690   -2.04055934767857
O        -2.09423733946550   -2.76362991984087   -0.09526735616210
C        -2.55271164810457   -4.15421554999129   -0.03680929065310
C        -2.02582495181131   -4.92522579490596   -1.24571579380833
C        -1.94206502469856   -4.69592013539579    1.25603572532205
C        -4.07855226984154   -4.19266523227035    0.03259359456772
H        -0.80418217540310   -0.85192277714938    0.85643083834633
H        -0.28028764655816    1.75776444581458    0.40541908140198
H        -1.57602059543672    2.40674461107934   -1.85696343903941
H        -2.82627476245579    0.15338681823353   -2.67841724195130
H        -0.94008198506912   -4.86864919676778   -1.28187356000689
H        -2.43121738408589   -4.51275898859685   -2.16575058783014
H        -2.32477433980284   -5.96588754871412   -1.16689801956373
H        -0.85791025166112   -4.64019923859839    1.21220077668166
H        -2.23971342897784   -5.73201634735741    1.38784698032204
H        -2.28744278303546   -4.11496851416556    2.10662177131665
H        -4.51171388627483   -3.79201350707853   -0.87974493336343
H        -4.42910333735993   -3.60390085363152    0.87742095315530
H        -4.40826739424330   -5.21959894690530    0.15521682751361
25
 energy: -37.010389375065 gnorm: 0.002941498524 xtb: 6.4.1 (1a32961)
C        -1.13458428124607   -0.21960856686738    0.06117148282020
C        -0.88017803756515    1.09191624685237   -0.18348156746192
C        -1.56072277020643    1.44408274393790   -1.38308907861062
C        -2.20189934589504    0.33332653554241   -1.82573233999690
N        -1.94825060443165   -0.69737896169944   -0.94425503354852
C        -2.46359522573779   -1.97446494177349   -1.09739291195028
O        -3.15284670480468   -2.27031029875755   -2.04660907692634
O        -2.10075504900607   -2.76256381443482   -0.09970123586863
C        -2.55429455657984   -4.15451095348900   -0.03766532097252
C        -2.02718435700353   -4.92679005906014   -1.24555028631211
C        -1.93863684567650   -4.68643517596225    1.25610655437161
C        -4.07979885225478   -4.19824210081747    0.03322750923200
H        -0.81227919181903   -0.86363593324163    0.85354905234068
H        -0.27838832648119    1.74797936622300    0.41371607766091
H        -1.56522319614714    2.40997076640809   -1.84768009937338
H        -2.82207529084615    0.16063313507719   -2.68221223594356
H        -0.94183598679762   -4.86175983159417   -1.28834045454330
H        -2.43991341834512   -4.52102960064850   -2.16559340896374
H        -2.31694328014652   -5.97009589091080   -1.16258828861542
H        -0.85485456030929   -4.62235280969335    1.20983891091337
H        -2.22703636826079   -5.72383779180637    1.39724248766372
H        -2.28610413046268   -4.10229642981883    2.10394409258924
H        -4.51517509613970   -3.80379546708185   -0.88105029531775
H        -4.43312282287825   -3.60562318303630    0.87454579661202
H        -4.40717170095899   -5.22554698334766    0.16159967020126
25
 energy: -37.010436948133 gnorm: 0.001746488154 xtb: 6.4.1 (1a32961)
C        -1.13818811204692   -0.22473431685813    0.05993873002328
C        -0.87913787244959    1.08648998256868   -0.17998211400569
C        -1.55544088409481    1.44461607793613   -1.37981380697422
C        -2.19971666975007    0.33781539746979   -1.82755122832424
N        -1.95088774030461   -0.69701228666113   -0.94922729770321
C        -2.46860595994493   -1.97399019776079   -1.10331542434850
O        -3.15968218517078   -2.26822174519717   -2.05096122354260
O        -2.10602218583902   -2.76124534713668   -0.10404151632580
C        -2.55571553496033   -4.15369872641019   -0.03843229664526
C        -2.02770145399662   -4.92729540659497   -1.24487108723894
C        -1.93627942147814   -4.67916745463145    1.25568545308425
C        -4.08078711845117   -4.20277644071776    0.03446923578584
H        -0.81990333041024   -0.87241178085068    0.85068436385646
H        -0.27626310762213    1.73850423852178    0.42068605218023
H        -1.55483554769588    2.41203340277069   -1.84113762644251
H        -2.81837356303770    0.16931795978454   -2.68600930183657
H        -0.94296838292034   -4.85452288977016   -1.29248579897634
H        -2.44689498387905   -4.52928253220058   -2.16558393476163
H        -2.30871153656671   -5.97263565401023   -1.15620028940531
H        -0.85294421769454   -4.60929664604047    1.20816402587452
H        -2.21820827629311   -5.71730772810655    1.40064470026602
H        -2.28623628526285   -4.09484725432647    2.10238996370597
H        -4.51947416443456   -3.81447867776098   -0.88110048898403
H        -4.43552494318942   -3.60755426343649    0.87344595165073
H        -4.40436652250646   -5.23066771058074    0.16860495908757
25
 energy: -37.010488462308 gnorm: 0.001540833099 xtb: 6.4.1 (1a32961)
C        -1.14436226694083   -0.23266961993504    0.05784190668634
C        -0.87682117694469    1.07758342153346   -0.17512807637187
C        -1.54610742552311    1.44474038564145   -1.37573942429210
C        -2.19537646653210    0.34426148389693   -1.83130719836606
N        -1.95624733628665   -0.69592227935404   -0.95639552118627
C        -2.47937389292148   -1.97181451831812   -1.11098956679951
O        -3.17136794849191   -2.26557732194749   -2.05680156702152
O        -2.11537355294508   -2.75773263468175   -0.11049539268140
C        -2.55777548231106   -4.15104175418939   -0.04005751141840
C        -2.02777713131483   -4.92703720748565   -1.24386670766371
C        -1.93285872784222   -4.66880210703441    1.25452008791717
C        -4.08210798891414   -4.20968297274073    0.03703462824361
H        -0.83334195704258   -0.88510784729805    0.84696263304442
H        -0.27257098381922    1.72245284617346    0.43173674101921
H        -1.53797916684161    2.41397660136360   -1.83283325185515
H        -2.81135745849015    0.18442596759576   -2.69307695322351
H        -0.94436744169436   -4.84082353938836   -1.29836866868077
H        -2.45777977987629   -4.54241447442756   -2.16548913831731
H        -2.29418738631144   -5.97523735231935   -1.14426308183390
H        -0.85027165306841   -4.58969950019518    1.20574827497636
H        -2.20569331517288   -5.70870827269516    1.40133146800866
H        -2.28734397483120   -4.08615420517999    2.10044743779794
H        -4.52664852332589   -3.83150585142724   -0.88011169573400
H        -4.43824376082282   -3.61102427015196    0.87287938459253
H        -4.39753520173505   -5.23885497743523    0.18042119315924
25
 energy: -37.010510534384 gnorm: 0.000854282643 xtb: 6.4.1 (1a32961)
C        -1.14970728762474   -0.23865843206303    0.05747713724259
C        -0.87521401825990    1.07086348314312   -0.17137656236862
C        -1.53908880544233    1.44363693490719   -1.37329773847599
C        -2.19282313667552    0.34728437818389   -1.83293773674791
N        -1.96051686496459   -0.69589062858447   -0.96012283082240
C        -2.48599437271732   -1.97052058002322   -1.11615481991712
O        -3.18014660304582   -2.26444507354323   -2.06031716576981
O        -2.12203253139546   -2.75526025906463   -0.11494065723071
C        -2.55956261403705   -4.14910725391241   -0.04124229735648
C        -2.02813525080105   -4.92610575609110   -1.24393389600746
C        -1.92969448400011   -4.66074457633676    1.25410656081156
C        -4.08353868262089   -4.21442208460442    0.03848686392584
H        -0.84403057547322   -0.89426915831335    0.84603732220659
H        -0.26945368578504    1.71054327083499    0.43926983479274
H        -1.52475383289821    2.41353822017109   -1.82884414430393
H        -2.80643434945939    0.19402797349033   -2.69748260146422
H        -0.94598726133704   -4.82966479673792   -1.30415504104999
H        -2.46631853541823   -4.55058466198454   -2.16525107141917
H        -2.28381318843699   -5.97598842530601   -1.13683740289240
H        -0.84771847212183   -4.57374629981901    1.20409290557425
H        -2.19538267526876   -5.70256530938461    1.40209596086407
H        -2.28737896281347   -4.07921404243904    2.09943418919795
H        -4.53129612150959   -3.84347672977583   -0.87991726040107
H        -4.44110821800625   -3.61316408728166    0.87176049176261
H        -4.39273946988718   -5.24443610546542    0.18804995984907
25
 energy: -37.010518400662 gnorm: 0.000404557962 xtb: 6.4.1 (1a32961)
C        -1.15374067094777   -0.24219133585558    0.05791366002124
C        -0.87334573526841    1.06637392234835   -0.16926297933519
C        -1.53320052166326    1.44255122867553   -1.37233222806973
C        -2.18996681214935    0.34883571016021   -1.83435478564263
N        -1.96434710118060   -0.69540397568154   -0.96145672403786
C        -2.49240568377502   -1.96857188998277   -1.11790901431238
O        -3.18606863177199   -2.26302090611374   -2.06235856715808
O        -2.12750286210529   -2.75343937547059   -0.11723830098630
C        -2.56076902210658   -4.14802459887542   -0.04202887138213
C        -2.02867421593182   -4.92545723288281   -1.24426312887303
C        -1.92731525827811   -4.65539180422986    1.25345233968730
C        -4.08443995617887   -4.21860535078661    0.03956910198680
H        -0.85293305895630   -0.89932546922146    0.84712734801836
H        -0.26681848360424    1.70276768765777    0.44394884579642
H        -1.51448187590576    2.41265953254095   -1.82722229883440
H        -2.80218177014874    0.20011829518936   -2.70065360331848
H        -0.94759116939394   -4.82122881309925   -1.30926854852410
H        -2.47350783087328   -4.55602854695702   -2.16479297824406
H        -2.27617314447885   -5.97670967979789   -1.13239087096775
H        -0.84597799515526   -4.56198846782723    1.20202710141751
H        -2.18704216594359   -5.69847774089246    1.40306850927700
H        -2.28739613366596   -4.07441498925104    2.09813206773268
H        -4.53411983440340   -3.85276409192846   -0.87986635072173
H        -4.44345985711095   -3.61543340684593    0.87078230798498
H        -4.38941020900264   -5.24919870087257    0.19337796848558
25
 energy: -37.010520343962 gnorm: 0.000232649138 xtb: 6.4.1 (1a32961)
C        -1.15635422794822   -0.24353391989720    0.05895883621654
C        -0.87277542734857    1.06440773928002   -0.16782893882953
C        -1.52961880345680    1.44176294764833   -1.37215347345146
C        -2.18884679469372    0.34958976445971   -1.83453851461776
N        -1.96648752154161   -0.69512358917938   -0.96154387378971
C        -2.49461361301530   -1.96800026832220   -1.11918638436595
O        -3.18930986515394   -2.26196268291884   -2.06309555465105
O        -2.13029020628580   -2.75299718254558   -0.11833454409139
C        -2.56166777333397   -4.14789447355297   -0.04237527811131
C        -2.02930070318656   -4.92494439571540   -1.24477924107509
C        -1.92573749778903   -4.65236982168936    1.25309611019556
C        -4.08514862476723   -4.22107854501201    0.04001607652640
H        -0.85819517053584   -0.90117409064380    0.84873268840816
H        -0.26540972995326    1.69925246351953    0.44615147992429
H        -1.50744988283652    2.41156189420977   -1.82759923382044
H        -2.80007810026161    0.20269918939958   -2.70183745241221
H        -0.94888087343633   -4.81676166664150   -1.31264055429620
H        -2.47768649655485   -4.55877184978810   -2.16478069683446
H        -2.27245090175164   -5.97688032866954   -1.13062375012101
H        -0.84479451599071   -4.55541879848277    1.20062822228022
H        -2.18192870834408   -5.69602311630470    1.40404481539268
H        -2.28689838725177   -4.07161195211512    2.09747961093822
H        -4.53593075402769   -3.85810436489078   -0.88001567775555
H        -4.44516056323559   -3.61700446667813    0.87011904653787
H        -4.38785485729932   -5.25198848546963    0.19610628180319
25
 energy: -37.010520829445 gnorm: 0.000142043173 xtb: 6.4.1 (1a32961)
C        -1.15756979358218   -0.24351952877623    0.05977289353540
C        -0.87219157231632    1.06391697458282   -0.16765735164920
C        -1.52809414276907    1.44146110415785   -1.37242413634455
C        -2.18796948326816    0.34971626553837   -1.83487323882955
N        -1.96755480814812   -0.69474950126685   -0.96106330895876
C        -2.49603552299266   -1.96748866870091   -1.11897897494022
O        -3.19041279324342   -2.26133738422374   -2.06312804838538
O        -2.13155127098056   -2.75265528370515   -0.11834049754745
C        -2.56198526719294   -4.14788467709251   -0.04250981007834
C        -2.02961279318918   -4.92469222295617   -1.24504844066603
C        -1.92514010911540   -4.65164736964402    1.25271422111785
C        -4.08535350437160   -4.22224986455410    0.04031331601882
H        -0.86093046835310   -0.90100708321893    0.85026246771634
H        -0.26469222499401    1.69849860632041    0.44648226675185
H        -1.50457335021229    2.41102425989495   -1.82827490139718
H        -2.79877230853330    0.20297092511567   -2.70249528437687
H        -0.94940640426919   -4.81514674063204   -1.31394523970265
H        -2.47931473762765   -4.55939893326401   -2.16473441720366
H        -2.27130655602917   -5.97691776659676   -1.13037150161263
H        -0.84433411069197   -4.55335302163227    1.19970758590109
H        -2.17998853993368   -5.69554416433430    1.40425119532538
H        -2.28655849956170   -4.07092349414980    2.09702997255513
H        -4.53655555523878   -3.86010296124400   -0.87982094196145
H        -4.44571406600081   -3.61801947261705    0.87014396201158
H        -4.38725211738473   -5.25331999700127    0.19698821272050
