12
 energy: -30.139310491860 gnorm: 0.047488271686 xtb: 6.4.1 (1a32961)
N        -0.24708000000000   -1.03523000000000   -0.00196000000000
C         1.05348000000000   -0.63073000000000   -0.00325000000000
C         1.02352000000000    0.74183000000000    0.00018000000000
C        -0.35546000000000    1.09066000000000    0.00536000000000
C        -0.93037000000000    2.48301000000000    0.01508000000000
F         0.04785000000000    3.43277000000000    0.00380000000000
F        -1.71484000000000    2.73285000000000   -1.06737000000000
F        -1.68502000000000    2.72834000000000    1.11964000000000
N        -1.12405000000000   -0.01876000000000    0.00301000000000
H        -0.60984000000000   -1.98388000000000   -0.00336000000000
H         1.86766000000000   -1.34165000000000   -0.00610000000000
H         1.87201000000000    1.41332000000000    0.00081000000000
12
 energy: -30.141973972324 gnorm: 0.016235109231 xtb: 6.4.1 (1a32961)
N        -0.24967379907755   -1.02224235913605   -0.00165008072351
C         1.04072590079748   -0.62460064837864   -0.00341815361807
C         1.02659140371342    0.74941476555730    0.00162369918154
C        -0.34021976235454    1.08900398449479    0.00561375919169
C        -0.92229425225069    2.46119713637718    0.01458049546747
F         0.04086930678342    3.41239369761476    0.00306915439579
F        -1.70808955562066    2.71487965276793   -1.05640890941093
F        -1.67830760773296    2.71142069263950    1.10780427364389
N        -1.10247945881660   -0.00478493958324    0.00419262084994
H        -0.61885679655341   -1.96373402320721   -0.00379496194993
H         1.84650703514041   -1.33066051120150   -0.00772779196268
H         1.86308758597169    1.42024255205519    0.00195589493479
12
 energy: -30.142278721667 gnorm: 0.003384508004 xtb: 6.4.1 (1a32961)
N        -0.25277598923678   -1.01456751606060   -0.00165555751271
C         1.03468773075526   -0.62488940808240   -0.00277559216211
C         1.03279011112420    0.75154951397267    0.00085334871654
C        -0.33061273428466    1.09003659733752    0.00522722146367
C        -0.91878786412500    2.45239506105701    0.01474619650555
F         0.03205878803788    3.40774092065096    0.00325177159618
F        -1.70746048490660    2.70450908527066   -1.04903287442564
F        -1.67738720911455    2.70100558079180    1.10133457075085
N        -1.09275131602785    0.00410067736636    0.00294853903274
H        -0.62673811938712   -1.95252849005340   -0.00382586837482
H         1.83950141561487   -1.32844109549504   -0.00635804068232
H         1.86533567155036    1.42161907324445    0.00112628509206
12
 energy: -30.142294249692 gnorm: 0.001786183429 xtb: 6.4.1 (1a32961)
N        -0.25398150849276   -1.01364629273365   -0.00168754057730
C         1.03414753927909   -0.62666189174655   -0.00328262307877
C         1.03533121614302    0.75032639963605    0.00200732750840
C        -0.32825863422712    1.09137465023300    0.00568386064140
C        -0.91856913457298    2.45317650883027    0.01439901356257
F         0.02864074553841    3.41099042128576    0.00223900807011
F        -1.70890599736868    2.70179534378576   -1.04863940743169
F        -1.67823819693415    2.69944929058643    1.10047426122262
N        -1.09224633553877    0.00610729059731    0.00416823526087
H        -0.62898130389519   -1.95136146365447   -0.00434753575709
H         1.84058672782079   -1.32905027344952   -0.00781156438006
H         1.86833488224834    1.42003001662961    0.00263696495893
12
 energy: -30.142298793557 gnorm: 0.001389914228 xtb: 6.4.1 (1a32961)
N        -0.25638946815745   -1.01209632963694   -0.00204273942697
C         1.03284588267651   -0.62989477379282   -0.00209902327017
C         1.03937336998942    0.74761153263331    0.00039947399735
C        -0.32378146822444    1.09394602946545    0.00493157653532
C        -0.91801276599338    2.45490212121687    0.01490831738408
F         0.02279396593566    3.41705871546083    0.00226599890039
F        -1.71148161935068    2.69774677648044   -1.04710207442491
F        -1.67932058118851    2.69513597136996    1.10131067329074
N        -1.09161828945443    0.01000782272436    0.00140684950910
H        -0.63278174988232   -1.94958257479064   -0.00452616281268
H         1.84297529693634   -1.32892677864900   -0.00472701441303
H         1.87325742671329    1.41662148751818    0.00111412473077
12
 energy: -30.142301538228 gnorm: 0.000400023989 xtb: 6.4.1 (1a32961)
N        -0.25587764513733   -1.01254870161820   -0.00201626369761
C         1.03293287806633   -0.62897496553388   -0.00333833822007
C         1.03793301641218    0.74818792490109    0.00283921420276
C        -0.32487808587803    1.09323225964370    0.00578227745688
C        -0.91802046461256    2.45441442666571    0.01416650312840
F         0.02452132163308    3.41533058302432    0.00061747343789
F        -1.71108999004670    2.69794656481086   -1.04831404787644
F        -1.67828316897108    2.69695252324347    1.10104542180338
N        -1.09185215875445    0.00907980032324    0.00416220279451
H        -0.63154913650799   -1.95019416890771   -0.00517514953820
H         1.84241475655074   -1.32823036906491   -0.00801295053289
H         1.87160867724581    1.41733412251232    0.00408365704138
12
 energy: -30.142301876572 gnorm: 0.000286125850 xtb: 6.4.1 (1a32961)
N        -0.25561091896551   -1.01277178580757   -0.00219894616278
C         1.03304800398800   -0.62856171649750   -0.00257259239338
C         1.03734518554165    0.74859143681065    0.00170947584034
C        -0.32549780206137    1.09285511225959    0.00524383933053
C        -0.91805339330704    2.45413427001796    0.01451958449851
F         0.02527544181639    3.41450969452162    0.00102531720281
F        -1.71104456250064    2.69890749133153   -1.04778034974725
F        -1.67777789088561    2.69720375710888    1.10174709790046
N        -1.09198238761828    0.00856242401104    0.00248606676111
H        -0.63094587033845   -1.95048971257671   -0.00506484943756
H         1.84212353948242   -1.32817404175880   -0.00604434011361
H         1.87098065484843    1.41776307057931    0.00276969632082
