      -----------------------------------------------------------      
     |                   =====================                   |     
     |                           x T B                           |     
     |                   =====================                   |     
     |                         S. Grimme                         |     
     |          Mulliken Center for Theoretical Chemistry        |     
     |                    University of Bonn                     |     
      -----------------------------------------------------------      

   * xtb version 6.4.1 (1a32961) compiled by 'knkr256@seskscpg007.prim.scp' on 2021-10-19

   xtb is free software: you can redistribute it and/or modify it under
   the terms of the GNU Lesser General Public License as published by
   the Free Software Foundation, either version 3 of the License, or
   (at your option) any later version.
   
   xtb is distributed in the hope that it will be useful,
   but WITHOUT ANY WARRANTY; without even the implied warranty of
   MERCHANTABILITY or FITNESS FOR A PARTICULAR PURPOSE.  See the
   GNU Lesser General Public License for more details.
   
   Cite this work as:
   * C. Bannwarth, E. Caldeweyher, S. Ehlert, A. Hansen, P. Pracht,
     J. Seibert, S. Spicher, S. Grimme, WIREs Comput. Mol. Sci., 2020, 11,
     e01493. DOI: 10.1002/wcms.1493
   
   for GFN2-xTB:
   * C. Bannwarth, S. Ehlert and S. Grimme., J. Chem. Theory Comput., 2019,
     15, 1652-1671. DOI: 10.1021/acs.jctc.8b01176
   for GFN1-xTB:
   * S. Grimme, C. Bannwarth, P. Shushkov, J. Chem. Theory Comput., 2017,
     13, 1989-2009. DOI: 10.1021/acs.jctc.7b00118
   for GFN0-xTB:
   * P. Pracht, E. Caldeweyher, S. Ehlert, S. Grimme, ChemRxiv, 2019, preprint.
     DOI: 10.26434/chemrxiv.8326202.v1
   for GFN-FF:
   * S. Spicher and S. Grimme, Angew. Chem. Int. Ed., 2020, 59, 15665-15673.
     DOI: 10.1002/anie.202004239
   
   for ALPB and GBSA implicit solvation:
   * S. Ehlert, M. Stahn, S. Spicher, S. Grimme, J. Chem. Theory Comput.,
     2021, 17, 4250-4261. DOI: 10.1021/acs.jctc.1c00471
   
   for DFT-D4:
   * E. Caldeweyher, C. Bannwarth and S. Grimme, J. Chem. Phys., 2017,
     147, 034112. DOI: 10.1063/1.4993215
   * E. Caldeweyher, S. Ehlert, A. Hansen, H. Neugebauer, S. Spicher,
     C. Bannwarth and S. Grimme, J. Chem. Phys., 2019, 150, 154122.
     DOI: 10.1063/1.5090222
   * E. Caldeweyher, J.-M. Mewes, S. Ehlert and S. Grimme, Phys. Chem. Chem. Phys.
     2020, 22, 8499-8512. DOI: 10.1039/D0CP00502A
   
   for sTDA-xTB:
   * S. Grimme and C. Bannwarth, J. Chem. Phys., 2016, 145, 054103.
     DOI: 10.1063/1.4959605
   
   in the mass-spec context:
   * V. Asgeirsson, C. Bauer and S. Grimme, Chem. Sci., 2017, 8, 4879.
     DOI: 10.1039/c7sc00601b
   * J. Koopman and S. Grimme, ACS Omega 2019, 4, 12, 15120-15133.
     DOI: 10.1021/acsomega.9b02011
   
   for metadynamics refer to:
   * S. Grimme, J. Chem. Theory Comput., 2019, 155, 2847-2862
     DOI: 10.1021/acs.jctc.9b00143
   
   for SPH calculations refer to:
   * S. Spicher and S. Grimme, J. Chem. Theory Comput., 2021, 17, 1701-1714
     DOI: 10.1021/acs.jctc.0c01306
   
   with help from (in alphabetical order)
   P. Atkinson, C. Bannwarth, F. Bohle, G. Brandenburg, E. Caldeweyher
   M. Checinski, S. Dohm, S. Ehlert, S. Ehrlich, I. Gerasimov, J. Koopman
   C. Lavigne, S. Lehtola, F. März, M. Müller, F. Musil, H. Neugebauer
   J. Pisarek, C. Plett, P. Pracht, J. Seibert, P. Shushkov, S. Spicher
   M. Stahn, M. Steiner, T. Strunk, J. Stückrath, T. Rose, and J. Unsleber
   
 * started run on 2022/01/14 at 14:40:18.553     

           -------------------------------------------------
          |                Calculation Setup                |
           -------------------------------------------------

          program call               : xtb xtbopt.xyz --sp --alpb thf -P 6
          hostname                   : seskscpg007.prim.scp
          coordinate file            : xtbopt.xyz
          omp threads                :                     6
          number of atoms            :                   125
          number of electrons        :                   324
          charge                     :                     0
          spin                       :                   0.0
          first test random number   :      0.29512154780576

   ID    Z sym.   atoms
    1    7 N      1, 11, 98
    2    6 C      2-6, 10, 12-15, 23, 24, 28, 32, 34, 38, 44, 45, 49, 53, 55,
                  59, 65, 66, 70, 74, 76, 80, 86-93, 95, 99, 100, 106, 108,
                  110, 113-115
    3    1 H      7-9, 16-18, 20, 25-27, 29-31, 35-37, 39-41, 46-48, 50-52,
                  56-58, 60-62, 67-69, 71-73, 77-79, 81-85, 94, 96, 97,
                  101-104, 107, 111, 112, 116-125
    4   77 Ir     19
    5    5 B      21, 42, 63
    6    8 O      22, 33, 43, 54, 64, 75, 105
    7   14 Si     109

molecular fragmentation (1/2 indicates fragments):
111111111111111111111111111111111111111111111111111111111111111111111111
11111111111112222222222222222222222222222222222222222
# atoms in fragment 1/2:    85    40
 fragment masses (1/2) :      730.32      282.43
CMA distance (Bohr)    :  10.844
constraining FC (au)   :  0.0500

           -------------------------------------------------
          |                 G F N 2 - x T B                 |
           -------------------------------------------------

        Reference                      10.1021/acs.jctc.8b01176
      * Hamiltonian:
        H0-scaling (s, p, d)           1.850000    2.230000    2.230000
        zeta-weighting                 0.500000
      * Dispersion:
        s8                             2.700000
        a1                             0.520000
        a2                             5.000000
        s9                             5.000000
      * Repulsion:
        kExp                           1.500000    1.000000
        rExp                           1.000000
      * Coulomb:
        alpha                          2.000000
        third order                    shell-resolved
        anisotropic                    true
        a3                             3.000000
        a5                             4.000000
        cn-shift                       1.200000
        cn-exp                         4.000000
        max-rad                        5.000000

      * Solvation model:               ALPB
        Solvent                        thf
        Parameter file                 internal GFN2-xTB/ALPB
        Dielectric constant                7.6000E+00
        Reference state                gsolv [1 M gas/solution]
        Free energy shift                  5.3248E-03 Eh       3.3414E+00 kcal/mol
        Temperature                        2.9815E+02 K
        Density                            8.8300E-01 kg/L
        Solvent mass                       7.2106E+01 g/mol
        Interaction kernel             P16
        Born radius scaling (c1)           1.7311E+00
        Born radii integrator          GBOBC
        Born offset                        0.0000E+00 a0       0.0000E+00 AA
        H-bond correction              true
        Ion screening                  false
        Surface tension                    1.0000E-05 Eh       1.5569E+01 dyn/cm
        Grid points                               230 per atom
q/qsh data taken from xtbrestart
CAMM data taken from xtbrestart

          ...................................................
          :                      SETUP                      :
          :.................................................:
          :  # basis functions                 317          :
          :  # atomic orbitals                 315          :
          :  # shells                          187          :
          :  # electrons                       324          :
          :  max. iterations                   250          :
          :  Hamiltonian                  GFN2-xTB          :
          :  restarted?                       true          :
          :  GBSA solvation                   true          :
          :  PC potential                    false          :
          :  electronic temp.          300.0000000     K    :
          :  accuracy                    1.0000000          :
          :  -> integral cutoff          0.2500000E+02      :
          :  -> integral neglect         0.1000000E-07      :
          :  -> SCF convergence          0.1000000E-05 Eh   :
          :  -> wf. convergence          0.1000000E-03 e    :
          :  Broyden damping             0.4000000          :
          ...................................................

 iter      E             dE          RMSdq      gap      omega  full diag
   1   -178.7816012 -0.178782E+03  0.274E-05    0.82       0.0  T
   2   -178.7816012  0.584066E-10  0.308E-05    0.82     290.2  T
   3   -178.7816012 -0.592308E-10  0.221E-05    0.82     403.8  T

   *** convergence criteria satisfied after 3 iterations ***

         #    Occupation            Energy/Eh            Energy/eV
      -------------------------------------------------------------
         1        2.0000           -0.7722429             -21.0138
       ...           ...                  ...                  ...
       156        2.0000           -0.3444418              -9.3727
       157        2.0000           -0.3416627              -9.2971
       158        2.0000           -0.3255621              -8.8590
       159        2.0000           -0.3183531              -8.6628
       160        2.0000           -0.3123072              -8.4983
       161        2.0000           -0.3050621              -8.3012
       162        2.0000           -0.3026913              -8.2367 (HOMO)
       163        0.0000           -0.2725778              -7.4172 (LUMO)
       164                         -0.2441628              -6.6440
       165                         -0.2417452              -6.5782
       166                         -0.2277993              -6.1987
       167                         -0.2064206              -5.6170
       ...                                ...                  ...
       315                          3.8464113             104.6662
      -------------------------------------------------------------
                  HL-Gap            0.0301135 Eh            0.8194 eV
             Fermi-level           -0.2875969 Eh           -7.8259 eV

 SCC (total)                   0 d,  0 h,  0 min,  0.133 sec
 SCC setup                      ...        0 min,  0.003 sec (  2.355%)
 Dispersion                     ...        0 min,  0.004 sec (  3.020%)
 classical contributions        ...        0 min,  0.000 sec (  0.162%)
 integral evaluation            ...        0 min,  0.015 sec ( 10.986%)
 iterations                     ...        0 min,  0.050 sec ( 37.794%)
 molecular gradient             ...        0 min,  0.060 sec ( 44.924%)
 printout                       ...        0 min,  0.001 sec (  0.713%)

         :::::::::::::::::::::::::::::::::::::::::::::::::::::
         ::                     SUMMARY                     ::
         :::::::::::::::::::::::::::::::::::::::::::::::::::::
         :: total energy            -176.397751404656 Eh    ::
         :: total w/o Gsasa/hb      -176.351723336368 Eh    ::
         :: gradient norm              0.040491887291 Eh/a0 ::
         :: HOMO-LUMO gap              0.819431098118 eV    ::
         ::.................................................::
         :: SCC energy              -178.781601157668 Eh    ::
         :: -> isotropic ES            0.270595304452 Eh    ::
         :: -> anisotropic ES          0.020666728110 Eh    ::
         :: -> anisotropic XC          0.064264077150 Eh    ::
         :: -> dispersion             -0.186755507172 Eh    ::
         :: -> Gsolv                  -0.055732235703 Eh    ::
         ::    -> Gelec               -0.009704167416 Eh    ::
         ::    -> Gsasa               -0.048749883538 Eh    ::
         ::    -> Ghb                 -0.002603000193 Eh    ::
         ::    -> Gshift               0.005324815444 Eh    ::
         :: repulsion energy           2.371333007460 Eh    ::
         :: add. restraining           0.000000000000 Eh    ::
         :: total charge               0.000000000011 e     ::
         :::::::::::::::::::::::::::::::::::::::::::::::::::::

           -------------------------------------------------
          |                Property Printout                |
           -------------------------------------------------

    * Orbital Energies and Occupations

         #    Occupation            Energy/Eh            Energy/eV
      -------------------------------------------------------------
         1        2.0000           -0.7722429             -21.0138
       ...           ...                  ...                  ...
       150        2.0000           -0.3871576             -10.5351
       151        2.0000           -0.3842817             -10.4568
       152        2.0000           -0.3828825             -10.4188
       153        2.0000           -0.3806967             -10.3593
       154        2.0000           -0.3771834             -10.2637
       155        2.0000           -0.3618555              -9.8466
       156        2.0000           -0.3444418              -9.3727
       157        2.0000           -0.3416627              -9.2971
       158        2.0000           -0.3255621              -8.8590
       159        2.0000           -0.3183531              -8.6628
       160        2.0000           -0.3123072              -8.4983
       161        2.0000           -0.3050621              -8.3012
       162        2.0000           -0.3026913              -8.2367 (HOMO)
       163        0.0000           -0.2725778              -7.4172 (LUMO)
       164                         -0.2441628              -6.6440
       165                         -0.2417452              -6.5782
       166                         -0.2277993              -6.1987
       167                         -0.2064206              -5.6170
       168                         -0.2006474              -5.4599
       169                         -0.1834769              -4.9927
       170                         -0.1821479              -4.9565
       171                         -0.1715129              -4.6671
       172                         -0.1560217              -4.2456
       173                         -0.1464711              -3.9857
       ...                                ...                  ...
       315                          3.8464113             104.6662
      -------------------------------------------------------------
                  HL-Gap            0.0301135 Eh            0.8194 eV
             Fermi-level           -0.2875969 Eh           -7.8259 eV

     #   Z          covCN         q      C6AA      α(0)
     1   7 N        2.496    -0.131    23.898     7.260
     2   6 C        2.953     0.077    26.288     8.410
     3   6 C        2.918    -0.044    29.092     8.845
     4   6 C        2.923    -0.023    28.572     8.766
     5   6 C        2.915    -0.044    29.101     8.846
     6   6 C        2.891     0.044    27.011     8.521
     7   1 H        0.926     0.075     2.032     2.229
     8   1 H        0.926     0.051     2.304     2.374
     9   1 H        0.926     0.041     2.435     2.440
    10   6 C        2.953     0.072    26.391     8.426
    11   7 N        2.548    -0.128    23.819     7.248
    12   6 C        2.891     0.044    27.022     8.523
    13   6 C        2.915    -0.046    29.135     8.851
    14   6 C        2.922    -0.026    28.649     8.778
    15   6 C        2.918    -0.047    29.170     8.857
    16   1 H        0.926     0.044     2.401     2.423
    17   1 H        0.926     0.049     2.336     2.390
    18   1 H        0.926     0.076     2.019     2.222
    19  77 Ir       5.871    -0.150   387.497    36.402
    20   1 H        0.977     0.097     1.807     2.101
    21   5 B        2.615     0.399    16.146     6.803
    22   8 O        1.637    -0.417    21.185     6.213
    23   6 C        3.830     0.131    18.440     6.110
    24   6 C        3.755    -0.121    22.872     6.819
    25   1 H        0.925     0.051     2.307     2.375
    26   1 H        0.925     0.045     2.385     2.415
    27   1 H        0.925     0.051     2.304     2.374
    28   6 C        3.755    -0.109    22.638     6.784
    29   1 H        0.925     0.046     2.364     2.405
    30   1 H        0.925     0.042     2.428     2.437
    31   1 H        0.925     0.027     2.628     2.535
    32   6 C        3.831     0.131    18.442     6.110
    33   8 O        1.637    -0.403    20.922     6.174
    34   6 C        3.755    -0.119    22.843     6.815
    35   1 H        0.925     0.044     2.396     2.420
    36   1 H        0.925     0.048     2.346     2.395
    37   1 H        0.925     0.049     2.326     2.385
    38   6 C        3.755    -0.118    22.824     6.812
    39   1 H        0.925     0.045     2.383     2.414
    40   1 H        0.925     0.052     2.294     2.369
    41   1 H        0.925     0.045     2.383     2.414
    42   5 B        2.624     0.404    16.039     6.771
    43   8 O        1.638    -0.370    20.294     6.081
    44   6 C        3.841     0.127    18.493     6.118
    45   6 C        3.755    -0.123    22.915     6.826
    46   1 H        0.925     0.047     2.364     2.404
    47   1 H        0.925     0.057     2.230     2.335
    48   1 H        0.925     0.050     2.321     2.383
    49   6 C        3.755    -0.125    22.948     6.830
    50   1 H        0.925     0.048     2.349     2.397
    51   1 H        0.925     0.053     2.278     2.360
    52   1 H        0.925     0.052     2.295     2.369
    53   6 C        3.832     0.127    18.503     6.120
    54   8 O        1.637    -0.381    20.500     6.112
    55   6 C        3.755    -0.124    22.935     6.829
    56   1 H        0.925     0.054     2.274     2.358
    57   1 H        0.925     0.054     2.269     2.356
    58   1 H        0.925     0.048     2.341     2.393
    59   6 C        3.755    -0.119    22.837     6.814
    60   1 H        0.925     0.040     2.447     2.446
    61   1 H        0.925     0.050     2.320     2.382
    62   1 H        0.925     0.049     2.329     2.386
    63   5 B        2.606     0.402    16.167     6.818
    64   8 O        1.638    -0.388    20.634     6.132
    65   6 C        3.814     0.125    18.535     6.128
    66   6 C        3.755    -0.128    23.006     6.839
    67   1 H        0.925     0.049     2.333     2.388
    68   1 H        0.925     0.057     2.232     2.337
    69   1 H        0.925     0.051     2.310     2.377
    70   6 C        3.755    -0.126    22.982     6.836
    71   1 H        0.925     0.057     2.237     2.339
    72   1 H        0.925     0.049     2.328     2.386
    73   1 H        0.925     0.048     2.344     2.394
    74   6 C        3.826     0.127    18.499     6.120
    75   8 O        1.637    -0.370    20.290     6.080
    76   6 C        3.755    -0.125    22.951     6.831
    77   1 H        0.925     0.052     2.300     2.372
    78   1 H        0.925     0.055     2.257     2.350
    79   1 H        0.925     0.054     2.271     2.357
    80   6 C        3.755    -0.119    22.836     6.814
    81   1 H        0.925     0.039     2.460     2.453
    82   1 H        0.925     0.048     2.347     2.396
    83   1 H        0.925     0.053     2.279     2.361
    84   1 H        0.926     0.047     2.361     2.403
    85   1 H        0.926     0.046     2.366     2.406
    86   6 C        2.824    -0.035    28.862     8.803
    87   6 C        2.974     0.001    27.991     8.678
    88   6 C        3.051    -0.034    28.794     8.801
    89   6 C        2.935    -0.048    29.185     8.860
    90   6 C        3.808    -0.054    21.543     6.607
    91   6 C        3.084     0.031    27.215     8.552
    92   6 C        3.080    -0.024    28.501     8.752
    93   6 C        2.906    -0.061    29.512     8.908
    94   1 H        0.925     0.030     2.586     2.515
    95   6 C        3.753    -0.105    22.564     6.774
    96   1 H        0.925     0.047     2.359     2.402
    97   1 H        0.924     0.018     2.766     2.601
    98   7 N        2.827     0.078    19.881     6.622
    99   6 C        2.915    -0.039    28.971     8.826
   100   6 C        3.058     0.025    27.384     8.582
   101   1 H        0.926     0.035     2.513     2.479
   102   1 H        0.925     0.037     2.490     2.468
   103   1 H        0.925     0.035     2.521     2.483
   104   1 H        0.925     0.037     2.490     2.468
   105   8 O        1.685    -0.328    19.493     5.961
   106   6 C        2.919    -0.042    29.044     8.838
   107   1 H        0.926     0.056     2.244     2.342
   108   6 C        2.910    -0.066    29.644     8.928
   109  14 Si       3.405     0.554   104.944    20.144
   110   6 C        2.923    -0.042    29.045     8.838
   111   1 H        0.926     0.024     2.669     2.555
   112   1 H        0.926     0.038     2.471     2.458
   113   6 C        3.647    -0.217    25.206     7.214
   114   6 C        3.649    -0.217    25.190     7.210
   115   6 C        3.650    -0.215    25.153     7.204
   116   1 H        0.926     0.035     2.514     2.479
   117   1 H        0.925     0.043     2.405     2.425
   118   1 H        0.925     0.040     2.450     2.448
   119   1 H        0.925     0.042     2.418     2.432
   120   1 H        0.925     0.045     2.378     2.411
   121   1 H        0.925     0.042     2.428     2.437
   122   1 H        0.925     0.047     2.355     2.400
   123   1 H        0.925     0.042     2.419     2.432
   124   1 H        0.925     0.042     2.424     2.435
   125   1 H        0.925     0.032     2.565     2.504

 Mol. C6AA /au·bohr⁶  :     169121.935498
 Mol. C8AA /au·bohr⁸  :    4521088.278888
 Mol. α(0) /au        :        642.748432


Wiberg/Mayer (AO) data.
largest (>0.10) Wiberg bond orders for each atom

 ---------------------------------------------------------------------------
     #   Z sym  total        # sym  WBO       # sym  WBO       # sym  WBO
 ---------------------------------------------------------------------------
     1   7 N    3.375 --     6 C    1.397     2 C    1.309    19 Ir   0.407
     2   6 C    3.979 --     3 C    1.353     1 N    1.309    10 C    1.090
     3   6 C    3.989 --     4 C    1.478     2 C    1.353     9 H    0.962
                             6 C    0.105
     4   6 C    3.985 --     3 C    1.478     5 C    1.389    84 H    0.969
     5   6 C    3.980 --     6 C    1.452     4 C    1.389     8 H    0.969
     6   6 C    3.973 --     5 C    1.452     1 N    1.397     7 H    0.950
                             3 C    0.105
     7   1 H    0.994 --     6 C    0.950
     8   1 H    0.997 --     5 C    0.969
     9   1 H    0.998 --     3 C    0.962
    10   6 C    3.979 --    15 C    1.352    11 N    1.306     2 C    1.090
    11   7 N    3.397 --    12 C    1.388    10 C    1.306    19 Ir   0.420
    12   6 C    3.973 --    13 C    1.456    11 N    1.388    18 H    0.947
                            15 C    0.105
    13   6 C    3.982 --    12 C    1.456    14 C    1.385    17 H    0.969
    14   6 C    3.984 --    15 C    1.478    13 C    1.385    85 H    0.969
    15   6 C    3.989 --    14 C    1.478    10 C    1.352    16 H    0.962
                            12 C    0.105
    16   1 H    0.998 --    15 C    0.962
    17   1 H    0.997 --    13 C    0.969
    18   1 H    0.994 --    12 C    0.947
    19  77 Ir   5.124 --    63 B    0.867    42 B    0.860    21 B    0.731
                            86 C    0.571    20 H    0.512    11 N    0.420
                             1 N    0.407
    20   1 H    0.987 --    19 Ir   0.512    86 C    0.367
    21   5 B    3.264 --    33 O    1.112    22 O    1.080    19 Ir   0.731
    22   8 O    2.179 --    21 B    1.080    23 C    0.944
    23   6 C    3.944 --    24 C    0.996    28 C    0.990    22 O    0.944
                            32 C    0.940
    24   6 C    3.994 --    23 C    0.996    26 H    0.984    27 H    0.983
                            25 H    0.982
    25   1 H    0.997 --    24 C    0.982
    26   1 H    0.997 --    24 C    0.984
    27   1 H    0.997 --    24 C    0.983
    28   6 C    3.997 --    23 C    0.990    29 H    0.984    30 H    0.984
                            31 H    0.983
    29   1 H    0.997 --    28 C    0.984
    30   1 H    0.998 --    28 C    0.984
    31   1 H    0.999 --    28 C    0.983
    32   6 C    3.941 --    38 C    0.996    34 C    0.991    33 O    0.942
                            23 C    0.940
    33   8 O    2.204 --    21 B    1.112    32 C    0.942
    34   6 C    3.995 --    32 C    0.991    36 H    0.983    35 H    0.981
                            37 H    0.981
    35   1 H    0.998 --    34 C    0.981
    36   1 H    0.997 --    34 C    0.983
    37   1 H    0.997 --    34 C    0.981
    38   6 C    3.994 --    32 C    0.996    41 H    0.984    39 H    0.983
                            40 H    0.983
    39   1 H    0.998 --    38 C    0.983
    40   1 H    0.997 --    38 C    0.983
    41   1 H    0.997 --    38 C    0.984
    42   5 B    3.343 --    43 O    1.135    54 O    1.107    19 Ir   0.860
    43   8 O    2.240 --    42 B    1.135    44 C    0.940
    44   6 C    3.936 --    45 C    0.996    49 C    0.990    43 O    0.940
                            53 C    0.937
    45   6 C    3.993 --    44 C    0.996    48 H    0.984    47 H    0.982
                            46 H    0.981
    46   1 H    0.998 --    45 C    0.981
    47   1 H    0.996 --    45 C    0.982
    48   1 H    0.996 --    45 C    0.984
    49   6 C    3.993 --    44 C    0.990    50 H    0.984    51 H    0.983
                            52 H    0.979
    50   1 H    0.997 --    49 C    0.984
    51   1 H    0.997 --    49 C    0.983
    52   1 H    0.997 --    49 C    0.979
    53   6 C    3.938 --    55 C    0.996    59 C    0.992    44 C    0.937
                            54 O    0.936
    54   8 O    2.226 --    42 B    1.107    53 C    0.936
    55   6 C    3.993 --    53 C    0.996    58 H    0.983    57 H    0.983
                            56 H    0.982
    56   1 H    0.997 --    55 C    0.982
    57   1 H    0.997 --    55 C    0.983
    58   1 H    0.996 --    55 C    0.983
    59   6 C    3.995 --    53 C    0.992    62 H    0.983    61 H    0.982
                            60 H    0.981
    60   1 H    0.998 --    59 C    0.981
    61   1 H    0.996 --    59 C    0.982
    62   1 H    0.997 --    59 C    0.983
    63   5 B    3.355 --    75 O    1.130    64 O    1.064    19 Ir   0.867
    64   8 O    2.215 --    63 B    1.064    65 C    0.945
    65   6 C    3.941 --    70 C    0.993    66 C    0.992    64 O    0.945
                            74 C    0.935
    66   6 C    3.993 --    65 C    0.992    69 H    0.983    68 H    0.982
                            67 H    0.979
    67   1 H    0.998 --    66 C    0.979
    68   1 H    0.996 --    66 C    0.982
    69   1 H    0.996 --    66 C    0.983
    70   6 C    3.993 --    65 C    0.993    72 H    0.983    73 H    0.982
                            71 H    0.982
    71   1 H    0.996 --    70 C    0.982
    72   1 H    0.996 --    70 C    0.983
    73   1 H    0.998 --    70 C    0.982
    74   6 C    3.935 --    76 C    0.995    80 C    0.990    75 O    0.942
                            65 C    0.935
    75   8 O    2.243 --    63 B    1.130    74 C    0.942
    76   6 C    3.992 --    74 C    0.995    77 H    0.983    78 H    0.982
                            79 H    0.981
    77   1 H    0.996 --    76 C    0.983
    78   1 H    0.997 --    76 C    0.982
    79   1 H    0.997 --    76 C    0.981
    80   6 C    3.995 --    74 C    0.990    81 H    0.983    83 H    0.983
                            82 H    0.981
    81   1 H    0.998 --    80 C    0.983
    82   1 H    0.997 --    80 C    0.981
    83   1 H    0.996 --    80 C    0.983
    84   1 H    0.997 --     4 C    0.969
    85   1 H    0.997 --    14 C    0.969
    86   6 C    3.942 --    87 C    1.397    88 C    1.298    19 Ir   0.571
                            20 H    0.367
    87   6 C    3.976 --    86 C    1.397    89 C    1.356    90 C    1.005
    88   6 C    3.978 --    86 C    1.298    91 C    1.256    92 C    1.151
    89   6 C    3.966 --    93 C    1.475    87 C    1.356    94 H    0.966
    90   6 C    3.996 --    87 C    1.005    95 C    1.003    97 H    0.972
                            96 H    0.961
    91   6 C    3.950 --    93 C    1.337    88 C    1.256    98 N    1.127
    92   6 C    3.980 --    99 C    1.360   100 C    1.240    88 C    1.151
    93   6 C    3.978 --    89 C    1.475    91 C    1.337   101 H    0.967
    94   1 H    0.998 --    89 C    0.966
    95   6 C    3.994 --    90 C    1.003   102 H    0.989   103 H    0.987
                           104 H    0.986
    96   1 H    0.998 --    90 C    0.961
    97   1 H    0.998 --    90 C    0.972
    98   7 N    3.528 --   100 C    1.147    91 C    1.127   105 O    0.972
    99   6 C    3.977 --   106 C    1.474    92 C    1.360   107 H    0.938
                           108 C    0.105
   100   6 C    3.954 --   108 C    1.347    92 C    1.240    98 N    1.147
   101   1 H    0.996 --    93 C    0.967
   102   1 H    0.999 --    95 C    0.989
   103   1 H    0.998 --    95 C    0.987
   104   1 H    0.998 --    95 C    0.986
   105   8 O    2.206 --   109 Si   1.027    98 N    0.972
   106   6 C    3.980 --    99 C    1.474   110 C    1.390   111 H    0.968
   107   1 H    0.996 --    99 C    0.938
   108   6 C    3.981 --   110 C    1.469   100 C    1.347   112 H    0.960
                            99 C    0.105
   109  14 Si   3.789 --   105 O    1.027   114 C    0.899   113 C    0.886
                           115 C    0.877
   110   6 C    3.968 --   108 C    1.469   106 C    1.390   116 H    0.971
   111   1 H    0.999 --   106 C    0.968
   112   1 H    0.998 --   108 C    0.960
   113   6 C    3.981 --   118 H    0.989   119 H    0.985   117 H    0.985
                           109 Si   0.886
   114   6 C    3.983 --   122 H    0.988   121 H    0.983   120 H    0.982
                           109 Si   0.899
   115   6 C    3.981 --   125 H    0.996   124 H    0.988   123 H    0.987
                           109 Si   0.877
   116   1 H    0.998 --   110 C    0.971
   117   1 H    0.998 --   113 C    0.985
   118   1 H    0.998 --   113 C    0.989
   119   1 H    0.998 --   113 C    0.985
   120   1 H    0.998 --   114 C    0.982
   121   1 H    0.998 --   114 C    0.983
   122   1 H    0.998 --   114 C    0.988
   123   1 H    0.998 --   115 C    0.987
   124   1 H    0.998 --   115 C    0.988
   125   1 H    0.999 --   115 C    0.996
 ---------------------------------------------------------------------------

Topologies differ in total number of bonds
Writing topology from bond orders to xtbtopo.mol

molecular dipole:
                 x           y           z       tot (Debye)
 q only:        0.301       0.533      -0.743
   full:       -0.909       0.864      -1.183       4.381
molecular quadrupole (traceless):
                xx          xy          yy          xz          yz          zz
 q only:        5.116       0.783      -7.616       9.760      17.555       2.500
  q+dip:       10.725      -0.095     -14.858       9.727      21.531       4.133
   full:        6.020       1.873     -10.412       8.008      17.649       4.392


           -------------------------------------------------
          | TOTAL ENERGY             -176.397751404656 Eh   |
          | GRADIENT NORM               0.040491887291 Eh/α |
          | HOMO-LUMO GAP               0.819431098118 eV   |
           -------------------------------------------------

------------------------------------------------------------------------
 * finished run on 2022/01/14 at 14:40:18.726     
------------------------------------------------------------------------
 total:
 * wall-time:     0 d,  0 h,  0 min,  0.174 sec
 *  cpu-time:     0 d,  0 h,  0 min,  1.018 sec
 * ratio c/w:     5.856 speedup
 SCF:
 * wall-time:     0 d,  0 h,  0 min,  0.135 sec
 *  cpu-time:     0 d,  0 h,  0 min,  0.804 sec
 * ratio c/w:     5.971 speedup

