105
 energy: -149.517804147016 gnorm: 0.000383792274 xtb: 6.4.0 (f63f532)
N        -0.98145921504458   -1.98493499832281   -0.34178341077189
C        -2.22703835264205   -1.48866002164035   -0.46951203109790
C        -3.14967274365235   -2.07934313541721   -1.34369088075064
C        -2.77954684671249   -3.17127034719954   -2.09671263481948
C        -1.48350730389996   -3.66487392448076   -1.96309166311254
C        -0.63465805268496   -3.03833004267126   -1.07544387527561
H         0.37746261555717   -3.39036636137008   -0.93301761627262
H        -1.14912863256655   -4.51614533841978   -2.53316134729905
H        -4.14926171219406   -1.68683397128511   -1.43308280034695
C        -2.54024401394370   -0.31455328579444    0.33285811367445
N        -1.56081387029391    0.13780882725830    1.14552962632128
C        -1.79836742756393    1.21312746077694    1.89499770632958
C        -2.99489448033669    1.89769968512117    1.88784297642110
C        -4.01161235805291    1.45117329238531    1.04584199436210
C        -3.77631302367110    0.34147942415561    0.26430917342590
H        -4.54855007119282   -0.01356560878984   -0.39770898259376
H        -3.13566368170188    2.75536210137435    2.52561767568806
H        -0.97939776515881    1.52413965221220    2.52582169634361
Ir        0.42149999999992   -0.81650000000002    0.91329999999986
H         0.87259999999991   -2.23030000000002    1.54050000000011
B         0.33518760748208    0.64220295834774   -0.57353624794136
O        -0.25349457341537    0.35719776767865   -1.79011020597736
C        -0.41250687092640    1.56097639158548   -2.55037702747169
C        -0.09066790089442    1.28967410000737   -4.01745931179918
H         0.87282930302632    0.80040710528028   -4.11403484827034
H        -0.08638425868623    2.22144625302738   -4.57721762350398
H        -0.84985010011411    0.63213627732909   -4.43451232446583
C        -1.88297059626493    1.98554718796545   -2.42656713897352
H        -2.08785913513948    2.86387791189112   -3.03146420470036
H        -2.51295399030658    1.16561452257021   -2.76648378018210
H        -2.12978454390363    2.19234006846744   -1.38693601303078
C         0.56254073196054    2.54775015830399   -1.82987320749314
O         0.66206525763826    1.97914407757230   -0.51673293971543
C         1.97180510920745    2.51667783710935   -2.43321624030622
H         2.33835443413825    1.49269536983294   -2.42954689952801
H         1.98046431191663    2.92357475885923   -3.44021326639583
H         2.63373976529553    3.10797672530109   -1.80544734413564
C         0.07433651213427    3.99199629353112   -1.74029474501409
H        -0.83538860831484    4.06669818053535   -1.15198088791093
H         0.83913528629320    4.59783542653495   -1.26013563169485
H        -0.10661099235426    4.38451220866936   -2.73769316444955
B         1.62002926613889    0.64109948274395    1.83051512086078
O         2.88966957189403    1.04554967426165    1.52161794725160
C         3.25307560197957    2.22313735188903    2.25670530092351
C         4.63571937965267    2.01559260757496    2.87892245207353
H         4.67311275694396    1.09200178282181    3.44747968939222
H         5.37322669051240    1.94709095700058    2.08347273373369
H         4.89101085762027    2.85403338488226    3.51985296347629
C         3.32808849407214    3.36853512280847    1.24102978716260
H         3.55621108529894    4.31355237073935    1.72447260529757
H         4.11241407378959    3.13988014344927    0.52304621605203
H         2.38831096094673    3.43475519755380    0.70054177967914
C         2.08202409172876    2.37975681953552    3.29760993725442
O         1.12349345390675    1.40182847691796    2.86714286051495
C         1.39833504961252    3.74945440745457    3.28945261050811
H         0.96656769490062    3.95825044311865    2.31573252675855
H         0.59658470872373    3.74442374337186    4.02456195623500
H         2.10650614117078    4.52982588315727    3.55202698202212
C         2.47565653657501    2.04354564544835    4.74050722269426
H         2.94826719253783    1.06937633470066    4.79910111137725
H         3.14881972815507    2.79538750780777    5.14038046035064
H         1.57358065215322    2.01809305322254    5.34785790093598
B         2.27820000000047   -1.33089999999951    0.17410000000028
O         3.17554668718427   -2.24393229585249    0.67367394929109
C         4.39332735381784   -2.20819950629486   -0.08431994709946
C         5.38486328495671   -1.35817724769046    0.71508021393533
H         4.95527875750204   -0.37432705615504    0.88070818854565
H         5.53199907165074   -1.82272468778125    1.68656175643099
H         6.33981200094044   -1.27875855304491    0.20571964782692
C         4.94003149344534   -3.62633455453383   -0.23382238221505
H         5.21154347950310   -3.99895398135429    0.75007379447098
H         5.82315322201989   -3.61974682420218   -0.86635112088833
H         4.19727607364558   -4.29544282245880   -0.65566709392141
C         3.94278966257841   -1.52019063814631   -1.41866347896914
O         2.73248897287581   -0.84882043283653   -1.03478813627013
C         4.93077236427217   -0.50057264358115   -1.98113227603381
H         5.89383400767610   -0.96979002801110   -2.16135971143037
H         4.54711842702967   -0.11385710563419   -2.92219122277200
H         5.04876361462125    0.33068544483489   -1.29472018539656
C         3.57455652268734   -2.52456679090149   -2.51936560630444
H         2.85573948672417   -3.24743403513651   -2.14297366884182
H         3.10861221984004   -1.98574567100012   -3.34099538013905
H         4.45673015810837   -3.03972524544662   -2.88687340770902
H        -3.47954786030451   -3.63256055316398   -2.77675177133886
H        -4.96170295239397    1.96205865124087    1.00481088900097
C         0.23589999999808   -1.68140000000039    2.96030000000153
C        -1.09806068404138   -1.96296858688477    3.25787816445903
C         1.12248990328419   -1.64519372746690    4.03265824389080
C        -1.53265949297018   -2.06562428264771    4.56580194238513
H        -1.81221059150102   -2.11413156806475    2.46095557282228
Br        2.99426569885768   -1.56615030917917    3.65103477193636
C         0.71826642540219   -1.72782714664681    5.36646706120946
C        -0.63668837880859   -1.92401751343677    5.60852492708773
H        -2.57506733291046   -2.26415822737180    4.77260593206038
C         1.69494170550053   -1.67803555190903    6.51827349619724
H        -0.98982130771861   -2.00068510286892    6.62398996449548
C         1.13054974334389   -0.97681200893242    7.75454640502114
C         2.14110573520749   -3.10278462014132    6.86406500529441
H         2.57786760439431   -1.11972037903932    6.19626377387170
H         0.39346084493160   -1.59406783760042    8.26224699853309
H         0.66902646380018   -0.03063924370599    7.48169355480633
H         1.93815851113838   -0.77752674048228    8.45475593370687
H         1.28612956061309   -3.70728474404441    7.15994460881254
H         2.85503857148583   -3.08009084922853    7.68310317738344
H         2.61784543619904   -3.56607323501414    6.00417567907507
