106
 energy: -152.478862807665 gnorm: 0.037270275734 xtb: 6.4.0 (f63f532)
N        -0.96510000000000   -2.11530000000001   -0.24090000000000
C        -2.24699999999998   -1.69840000000000   -0.36220000000000
C        -3.14039999999999   -2.36820000000000   -1.21199999999999
C        -2.70220000000003   -3.47560000000001   -1.93050000000000
C        -1.37780000000002   -3.89880000000000   -1.78759999999998
C        -0.54290000000001   -3.18670000000001   -0.93509999999997
H         0.49809999999999   -3.45630000000000   -0.78940000000000
H        -0.99570000000000   -4.76030000000000   -2.32770000000000
H        -4.16500000000001   -2.02890000000000   -1.31830000000000
C        -2.62130000000002   -0.50950000000000    0.44100000000002
N        -1.62600000000000    0.07330000000001    1.16020000000000
C        -1.89679999999999    1.15240000000000    1.91689999999999
C        -3.17230000000000    1.70330000000001    1.99650000000000
C        -4.20509999999999    1.11740000000001    1.26270000000000
C        -3.92610000000008    0.00249999999998    0.47820000000002
H        -4.71959999999999   -0.46420000000000   -0.09520000000000
H        -3.34630000000000    2.57510000000000    2.62070000000000
H        -1.04449999999999    1.57420000000000    2.43690000000000
Ir        0.42150000000000   -0.81650000000000    0.91330000000000
H         0.87260000000000   -2.23030000000000    1.54050000000000
B         0.50670000000000    0.41560000000000   -0.81540000000000
O         0.19500000000000   -0.04700000000001   -2.09149999999999
C         0.00650000000002    1.10039999999999   -2.95430000000001
C         0.49019999999997    0.74740000000000   -4.35780000000000
H         1.51610000000001    0.37380000000000   -4.33700000000000
H         0.44730000000001    1.62239999999999   -5.01670000000000
H        -0.14739999999999   -0.03390000000001   -4.78429999999999
C        -1.50120000000002    1.39559999999997   -2.96670000000000
H        -1.75370000000000    2.21460000000000   -3.64849999999999
H        -2.03200000000001    0.49450000000001   -3.28929999999999
H        -1.85170000000000    1.65210000000000   -1.96219999999999
C         0.84230000000000    2.20669999999999   -2.22040000000001
O         0.75200000000000    1.78260000000000   -0.83690000000001
C         2.32930000000000    2.18620000000000   -2.59899999999999
H         2.74130000000000    1.18499999999998   -2.45750000000000
H         2.48870000000001    2.51300000000000   -3.63180000000000
H         2.87200000000000    2.86270000000000   -1.93200000000000
C         0.28440000000000    3.62290000000001   -2.33660000000001
H        -0.72650000000000    3.69040000000000   -1.92910000000000
H         0.92130000000001    4.31480000000000   -1.77610000000000
H         0.26430000000001    3.94810000000000   -3.38320000000000
B         1.56300000000002    0.60960000000000    1.84840000000000
O         2.92780000000001    0.55230000000001    2.15019999999999
C         3.36329999999999    1.88660000000000    2.50259999999998
C         4.53140000000000    1.78590000000000    3.47739999999999
H         4.27910000000000    1.16090000000000    4.33689999999999
H         5.39390000000000    1.33790000000000    2.97340000000001
H         4.82390000000000    2.77870000000000    3.83820000000001
C         3.79700000000000    2.56850000000000    1.19669999999993
H         4.20020000000000    3.57090000000000    1.37680000000001
H         4.56740000000000    1.95560000000001    0.72109999999999
H         2.95240000000000    2.63260000000000    0.50539999999998
C         2.05040000000000    2.50090000000000    3.09320000000000
O         1.03750000000000    1.81620000000000    2.31910000000000
C         1.89100000000000    4.00450000000002    2.88650000000000
H         1.87290000000000    4.25440000000000    1.82410000000000
H         0.94940000000000    4.34260000000000    3.33170000000000
H         2.71080000000000    4.55150000000000    3.36630000000000
C         1.82470000000003    2.13200000000002    4.56520000000000
H         1.92609999999999    1.05330000000000    4.71320000000000
H         2.52610000000000    2.65279999999999    5.22540000000000
H         0.80630000000001    2.41580000000000    4.84900000000000
B         2.27820000000000   -1.33090000000000    0.17410000000000
O         2.89460000000000   -2.57740000000000    0.38450000000000
C         4.26930000000000   -2.48200000000000   -0.07210000000000
C         5.10900000000000   -2.05380000000000    1.14010000000000
H         4.76350000000000   -1.08740000000000    1.51750000000000
H         4.98050000000000   -2.79470000000000    1.93590000000000
H         6.17420000000000   -1.99290000000000    0.89300000000000
C         4.71950000000000   -3.84660000000000   -0.58470000000000
H         4.75280000000000   -4.56130000000000    0.24420000000000
H         5.72330000000000   -3.78370000000000   -1.02009999999999
H         4.03500000000000   -4.23600000000000   -1.34170000000000
C         4.16440000000001   -1.36219999999999   -1.16300000000000
O         3.08520000000000   -0.55030000000000   -0.65400000000000
C         5.40720000000001   -0.48870000000000   -1.31549999999999
H         6.27320000000000   -1.09010000000000   -1.61529999999999
H         5.23300000000000    0.26930000000001   -2.08589999999999
H         5.64270000000000    0.02650000000000   -0.38240000000000
C         3.71800000000001   -1.89829999999999   -2.53110000000000
H         2.82530000000000   -2.52159999999999   -2.42740000000000
H         3.46090000000001   -1.05249999999999   -3.17550000000000
H         4.50570000000001   -2.48289999999999   -3.01790000000000
H        -3.38499999999999   -4.00129999999999   -2.59310000000001
H        -5.21400000000000    1.52080000000000    1.29959999999999
C         0.23589999999999   -1.68140000000002    2.96030000000001
C        -0.15216396521053   -2.70978516361815    3.83439026125556
C         1.18224597833424   -0.84858454056219    3.98638597996657
C        -0.28503103297102   -2.66874203192360    5.22951422832505
H        -0.38754262601456   -3.67102263052289    3.39574011625269
N         0.54992561067077   -0.57196080544580    5.12578495147076
C         2.71869507874557   -0.39968290703716    4.64452722040489
C        -0.18721803620476   -1.41572603921165    5.81267384383874
H        -0.36703654690093   -3.55390514527746    5.84340704727428
N         3.48337534986020    0.54775751043895    5.72739669338680
H         3.38500838649050   -0.33847076819621    3.78070340676712
H         2.93685468419208   -1.32678118173129    5.17807784992483
H        -0.48184583560441   -1.09286235276874    6.80355553068043
C         3.86719767799393    1.91731206842577    5.88116489075075
C         4.30702141434217    0.00585270379730    6.70533927172433
C         4.78162624178279    2.17343089302331    6.85351806876625
H         3.86196173894261    2.79117732080108    5.25287879548823
C         5.08262940560846    0.91612602215559    7.39091577077461
H         4.34944169715181   -1.04760486655861    6.89411473641570
H         5.15486784288415    3.17732918462052    7.01742099946495
H         5.83829208676976    0.79829054587092    8.14715415992934
