      -----------------------------------------------------------      
     |                   =====================                   |     
     |                           x T B                           |     
     |                   =====================                   |     
     |                         S. Grimme                         |     
     |          Mulliken Center for Theoretical Chemistry        |     
     |                    University of Bonn                     |     
      -----------------------------------------------------------      

   * xtb version 6.4.0 (f63f532) compiled by 'knkr256@seskscpg008.prim.scp' on 2021-04-09

   xtb is free software: you can redistribute it and/or modify it under
   the terms of the GNU Lesser General Public License as published by
   the Free Software Foundation, either version 3 of the License, or
   (at your option) any later version.
   
   xtb is distributed in the hope that it will be useful,
   but WITHOUT ANY WARRANTY; without even the implied warranty of
   MERCHANTABILITY or FITNESS FOR A PARTICULAR PURPOSE.  See the
   GNU Lesser General Public License for more details.
   
   Cite this work as:
   * C. Bannwarth, E. Caldeweyher, S. Ehlert, A. Hansen, P. Pracht,
     J. Seibert, S. Spicher, S. Grimme, WIREs Comput. Mol. Sci., 2020, 11,
     e01493. DOI: 10.1002/wcms.1493
   
   for GFN2-xTB:
   * C. Bannwarth, S. Ehlert and S. Grimme., J. Chem. Theory Comput., 2019,
     15, 1652-1671. DOI: 10.1021/acs.jctc.8b01176
   for GFN1-xTB:
   * S. Grimme, C. Bannwarth, P. Shushkov, J. Chem. Theory Comput., 2017,
     13, 1989-2009. DOI: 10.1021/acs.jctc.7b00118
   for GFN0-xTB:
   * P. Pracht, E. Caldeweyher, S. Ehlert, S. Grimme, ChemRxiv, 2019, preprint.
     DOI: 10.26434/chemrxiv.8326202.v1
   for GFN-FF:
   * S. Spicher and S. Grimme, Angew. Chem. Int. Ed., 2020, 59, 15665-15673.
     DOI: 10.1002/anie.202004239
   
   for DFT-D4:
   * E. Caldeweyher, C. Bannwarth and S. Grimme, J. Chem. Phys., 2017,
     147, 034112. DOI: 10.1063/1.4993215
   * E. Caldeweyher, S. Ehlert, A. Hansen, H. Neugebauer, S. Spicher,
     C. Bannwarth and S. Grimme, J. Chem. Phys., 2019, 150, 154122.
     DOI: 10.1063/1.5090222
   * E. Caldeweyher, J.-M. Mewes, S. Ehlert and S. Grimme, Phys. Chem. Chem. Phys.
     2020, 22, 8499-8512. DOI: 10.1039/D0CP00502A
   
   for sTDA-xTB:
   * S. Grimme and C. Bannwarth, J. Chem. Phys., 2016, 145, 054103.
     DOI: 10.1063/1.4959605
   
   in the mass-spec context:
   * V. Asgeirsson, C. Bauer and S. Grimme, Chem. Sci., 2017, 8, 4879.
     DOI: 10.1039/c7sc00601b
   * J. Koopman and S. Grimme, ACS Omega 2019, 4, 12, 15120-15133.
     DOI: 10.1021/acsomega.9b02011
   
   for metadynamics refer to:
   * S. Grimme, J. Chem. Theory Comput., 2019, 155, 2847-2862
     DOI: 10.1021/acs.jctc.9b00143
   
   for SPH calculations refer to:
   * S. Spicher and S. Grimme, J. Chem. Theory Comput., 2021, 17, 1701-1714
     DOI: 10.1021/acs.jctc.0c01306
   
   with help from (in alphabetical order)
   P. Atkinson, C. Bannwarth, F. Bohle, G. Brandenburg, E. Caldeweyher
   M. Checinski, S. Dohm, S. Ehlert, S. Ehrlich, I. Gerasimov, J. Koopman
   C. Lavinge, S. Lehtola, F. März, M. Müller, F. Musil, H. Neugebauer
   J. Pisarek, P. Pracht, J. Seibert, P. Shushkov, S. Spicher, M. Stahn
   T. Strunk, J. Stückrath, T. Rose, and J. Unsleber
   
 * started run on 2021/10/08 at 07:17:17.613     

           -------------------------------------------------
          |                Calculation Setup                |
           -------------------------------------------------

          program call               : xtb xtbopt.xyz --sp --alpb thf -P 6
          hostname                   : seskscpg010.prim.scp
          coordinate file            : xtbopt.xyz
          omp threads                :                     6
          number of atoms            :                   106
          number of electrons        :                   280
          charge                     :                     0
          spin                       :                   0.0
          first test random number   :      0.34929937528933

   ID    Z sym.   atoms
    1    7 N      1, 11, 91, 95
    2    6 C      2-6, 10, 12-15, 23, 24, 28, 32, 34, 38, 44, 45, 49, 53, 55,
                  59, 65, 66, 70, 74, 76, 80, 86-89, 92, 93, 99-101, 103
    3    1 H      7-9, 16-18, 20, 25-27, 29-31, 35-37, 39-41, 46-48, 50-52,
                  56-58, 60-62, 67-69, 71-73, 77-79, 81-85, 90, 94, 96-98,
                  102, 104-106
    4   77 Ir     19
    5    5 B      21, 42, 63
    6    8 O      22, 33, 43, 54, 64, 75

molecular fragmentation (1/2 indicates fragments):
111111111111111111111111111111111111111111111111111111111111111111111111
1111111111111222222222222222222222
# atoms in fragment 1/2:    85    21
 fragment masses (1/2) :      730.32      157.19
CMA distance (Bohr)    :   9.961
constraining FC (au)   :  0.0500

           -------------------------------------------------
          |                 G F N 2 - x T B                 |
           -------------------------------------------------

        Reference                      10.1021/acs.jctc.8b01176
      * Hamiltonian:
        H0-scaling (s, p, d)           1.850000    2.230000    2.230000
        zeta-weighting                 0.500000
      * Dispersion:
        s8                             2.700000
        a1                             0.520000
        a2                             5.000000
        s9                             5.000000
      * Repulsion:
        kExp                           1.500000    1.000000
        rExp                           1.000000
      * Coulomb:
        alpha                          2.000000
        third order                    shell-resolved
        anisotropic                    true
        a3                             3.000000
        a5                             4.000000
        cn-shift                       1.200000
        cn-exp                         4.000000
        max-rad                        5.000000

      * Solvation model:               ALPB
        Solvent                        thf
        Parameter file                 internal GFN2-xTB/ALPB
        Dielectric constant                7.6000E+00
        Reference state                gsolv [1 M gas/solution]
        Free energy shift                  5.3248E-03 Eh       3.3414E+00 kcal/mol
        Temperature                        2.9815E+02 K
        Density                            8.8300E-01 kg/L
        Solvent mass                       7.2106E+01 g/mol
        Interaction kernel             P16
        Born radius scaling (c1)           1.7311E+00
        Born radii integrator          GBOBC
        Born offset                        0.0000E+00 a0       0.0000E+00 AA
        H-bond correction              true
        Ion screening                  false
        Surface tension                    1.0000E-05 Eh       1.5569E+01 dyn/cm
        Grid points                               230 per atom
q/qsh data taken from xtbrestart
CAMM data taken from xtbrestart

          ...................................................
          :                      SETUP                      :
          :.................................................:
          :  # basis functions                 268          :
          :  # atomic orbitals                 267          :
          :  # shells                          159          :
          :  # electrons                       280          :
          :  max. iterations                   250          :
          :  Hamiltonian                  GFN2-xTB          :
          :  restarted?                       true          :
          :  GBSA solvation                   true          :
          :  PC potential                    false          :
          :  electronic temp.          300.0000000     K    :
          :  accuracy                    1.0000000          :
          :  -> integral cutoff          0.2500000E+02      :
          :  -> integral neglect         0.1000000E-07      :
          :  -> SCF convergence          0.1000000E-05 Eh   :
          :  -> wf. convergence          0.1000000E-03 e    :
          :  Broyden damping             0.4000000          :
          ...................................................

 iter      E             dE          RMSdq      gap      omega  full diag
   1   -154.9269600 -0.154927E+03  0.252E-05    0.84       0.0  T
   2   -154.9269600  0.170530E-11  0.202E-05    0.84     479.8  T
   3   -154.9269600  0.118803E-10  0.199E-05    0.84     487.7  T

   *** convergence criteria satisfied after 3 iterations ***

         #    Occupation            Energy/Eh            Energy/eV
      -------------------------------------------------------------
         1        2.0000           -0.6771972             -18.4275
       ...           ...                  ...                  ...
       134        2.0000           -0.3499624              -9.5230
       135        2.0000           -0.3451462              -9.3919
       136        2.0000           -0.3366865              -9.1617
       137        2.0000           -0.3263052              -8.8792
       138        2.0000           -0.3184192              -8.6646
       139        2.0000           -0.3134044              -8.5282
       140        2.0000           -0.3119689              -8.4891 (HOMO)
       141        0.0000           -0.2810621              -7.6481 (LUMO)
       142                         -0.2524936              -6.8707
       143                         -0.2503439              -6.8122
       144                         -0.2299253              -6.2566
       145                         -0.2216639              -6.0318
       ...                                ...                  ...
       267                          3.7001125             100.6852
      -------------------------------------------------------------
                  HL-Gap            0.0309068 Eh            0.8410 eV
             Fermi-level           -0.2964203 Eh           -8.0660 eV

 SCC (total)                   0 d,  0 h,  0 min,  0.113 sec
 SCC setup                      ...        0 min,  0.002 sec (  1.957%)
 Dispersion                     ...        0 min,  0.003 sec (  2.452%)
 classical contributions        ...        0 min,  0.000 sec (  0.148%)
 integral evaluation            ...        0 min,  0.031 sec ( 27.351%)
 iterations                     ...        0 min,  0.034 sec ( 29.809%)
 molecular gradient             ...        0 min,  0.043 sec ( 37.653%)
 printout                       ...        0 min,  0.001 sec (  0.580%)

         :::::::::::::::::::::::::::::::::::::::::::::::::::::
         ::                     SUMMARY                     ::
         :::::::::::::::::::::::::::::::::::::::::::::::::::::
         :: total energy            -152.897182577757 Eh    ::
         :: total w/o Gsasa/hb      -152.854747521534 Eh    ::
         :: gradient norm              0.031347006334 Eh/a0 ::
         :: HOMO-LUMO gap              0.841016430423 eV    ::
         ::.................................................::
         :: SCC energy              -154.926959958236 Eh    ::
         :: -> isotropic ES            0.242353304992 Eh    ::
         :: -> anisotropic ES          0.015659082848 Eh    ::
         :: -> anisotropic XC          0.059963761665 Eh    ::
         :: -> dispersion             -0.149327598387 Eh    ::
         :: -> Gsolv                  -0.052066083511 Eh    ::
         ::    -> Gelec               -0.009631027288 Eh    ::
         ::    -> Gsasa               -0.045430345307 Eh    ::
         ::    -> Ghb                 -0.002329526360 Eh    ::
         ::    -> Gshift               0.005324815444 Eh    ::
         :: repulsion energy           2.020472112168 Eh    ::
         :: add. restraining           0.000000000000 Eh    ::
         :: total charge               0.000000000127 e     ::
         :::::::::::::::::::::::::::::::::::::::::::::::::::::

           -------------------------------------------------
          |                Property Printout                |
           -------------------------------------------------

    * Orbital Energies and Occupations

         #    Occupation            Energy/Eh            Energy/eV
      -------------------------------------------------------------
         1        2.0000           -0.6771972             -18.4275
       ...           ...                  ...                  ...
       128        2.0000           -0.3894007             -10.5961
       129        2.0000           -0.3889744             -10.5845
       130        2.0000           -0.3855330             -10.4909
       131        2.0000           -0.3842703             -10.4565
       132        2.0000           -0.3633311              -9.8867
       133        2.0000           -0.3572172              -9.7204
       134        2.0000           -0.3499624              -9.5230
       135        2.0000           -0.3451462              -9.3919
       136        2.0000           -0.3366865              -9.1617
       137        2.0000           -0.3263052              -8.8792
       138        2.0000           -0.3184192              -8.6646
       139        2.0000           -0.3134044              -8.5282
       140        2.0000           -0.3119689              -8.4891 (HOMO)
       141        0.0000           -0.2810621              -7.6481 (LUMO)
       142                         -0.2524936              -6.8707
       143                         -0.2503439              -6.8122
       144                         -0.2299253              -6.2566
       145                         -0.2216639              -6.0318
       146                         -0.2093321              -5.6962
       147                         -0.1951193              -5.3095
       148                         -0.1608171              -4.3761
       149                         -0.1576370              -4.2895
       150                         -0.1313333              -3.5738
       151                         -0.1302586              -3.5445
       ...                                ...                  ...
       267                          3.7001125             100.6852
      -------------------------------------------------------------
                  HL-Gap            0.0309068 Eh            0.8410 eV
             Fermi-level           -0.2964203 Eh           -8.0660 eV

     #   Z          covCN         q      C6AA      α(0)
     1   7 N        2.509    -0.124    23.740     7.236
     2   6 C        2.953     0.081    26.198     8.395
     3   6 C        2.918    -0.043    29.067     8.841
     4   6 C        2.924    -0.020    28.508     8.756
     5   6 C        2.915    -0.043    29.059     8.840
     6   6 C        2.894     0.051    26.865     8.498
     7   1 H        0.926     0.053     2.283     2.363
     8   1 H        0.926     0.058     2.219     2.329
     9   1 H        0.926     0.048     2.340     2.392
    10   6 C        2.953     0.075    26.317     8.414
    11   7 N        2.525    -0.131    23.878     7.257
    12   6 C        2.892     0.044    27.015     8.522
    13   6 C        2.915    -0.043    29.079     8.843
    14   6 C        2.923    -0.023    28.576     8.766
    15   6 C        2.919    -0.045    29.123     8.850
    16   1 H        0.926     0.048     2.343     2.394
    17   1 H        0.926     0.054     2.275     2.359
    18   1 H        0.926     0.076     2.022     2.224
    19  77 Ir       5.870    -0.150   387.443    36.400
    20   1 H        0.977     0.086     1.912     2.161
    21   5 B        2.626     0.402    16.059     6.774
    22   8 O        1.639    -0.405    20.953     6.179
    23   6 C        3.833     0.130    18.456     6.112
    24   6 C        3.755    -0.121    22.881     6.821
    25   1 H        0.925     0.054     2.268     2.355
    26   1 H        0.925     0.045     2.380     2.412
    27   1 H        0.925     0.050     2.320     2.382
    28   6 C        3.754    -0.110    22.664     6.788
    29   1 H        0.925     0.048     2.344     2.394
    30   1 H        0.925     0.042     2.428     2.437
    31   1 H        0.925     0.029     2.601     2.522
    32   6 C        3.840     0.131    18.434     6.108
    33   8 O        1.637    -0.403    20.916     6.173
    34   6 C        3.755    -0.123    22.912     6.825
    35   1 H        0.925     0.055     2.264     2.353
    36   1 H        0.925     0.046     2.365     2.405
    37   1 H        0.925     0.049     2.328     2.386
    38   6 C        3.754    -0.120    22.859     6.817
    39   1 H        0.925     0.047     2.361     2.403
    40   1 H        0.925     0.053     2.278     2.360
    41   1 H        0.925     0.046     2.374     2.409
    42   5 B        2.616     0.395    16.195     6.812
    43   8 O        1.637    -0.384    20.548     6.119
    44   6 C        3.829     0.128    18.481     6.117
    45   6 C        3.755    -0.125    22.954     6.831
    46   1 H        0.925     0.050     2.317     2.381
    47   1 H        0.925     0.058     2.220     2.330
    48   1 H        0.925     0.050     2.324     2.384
    49   6 C        3.755    -0.124    22.930     6.828
    50   1 H        0.925     0.048     2.347     2.396
    51   1 H        0.925     0.047     2.360     2.402
    52   1 H        0.925     0.057     2.240     2.340
    53   6 C        3.826     0.127    18.495     6.119
    54   8 O        1.637    -0.382    20.520     6.115
    55   6 C        3.755    -0.124    22.930     6.828
    56   1 H        0.925     0.055     2.263     2.352
    57   1 H        0.925     0.052     2.294     2.369
    58   1 H        0.925     0.048     2.339     2.392
    59   6 C        3.755    -0.120    22.861     6.818
    60   1 H        0.925     0.041     2.439     2.442
    61   1 H        0.925     0.052     2.296     2.370
    62   1 H        0.925     0.051     2.304     2.374
    63   5 B        2.629     0.400    16.060     6.772
    64   8 O        1.637    -0.380    20.476     6.108
    65   6 C        3.834     0.126    18.518     6.122
    66   6 C        3.755    -0.132    23.102     6.853
    67   1 H        0.925     0.061     2.190     2.314
    68   1 H        0.925     0.055     2.262     2.352
    69   1 H        0.925     0.051     2.305     2.374
    70   6 C        3.755    -0.129    23.043     6.845
    71   1 H        0.925     0.060     2.199     2.319
    72   1 H        0.925     0.051     2.305     2.374
    73   1 H        0.925     0.053     2.277     2.360
    74   6 C        3.831     0.127    18.493     6.119
    75   8 O        1.637    -0.378    20.433     6.102
    76   6 C        3.755    -0.126    22.969     6.834
    77   1 H        0.925     0.052     2.298     2.370
    78   1 H        0.925     0.055     2.264     2.353
    79   1 H        0.925     0.057     2.238     2.339
    80   6 C        3.755    -0.123    22.916     6.826
    81   1 H        0.925     0.040     2.445     2.445
    82   1 H        0.925     0.051     2.307     2.375
    83   1 H        0.925     0.056     2.252     2.347
    84   1 H        0.926     0.055     2.257     2.349
    85   1 H        0.926     0.052     2.289     2.366
    86   6 C        2.824    -0.049    29.197     8.854
    87   6 C        2.940    -0.015    28.377     8.737
    88   6 C        2.953     0.091    25.984     8.361
    89   6 C        2.909    -0.054    29.353     8.884
    90   1 H        0.925     0.026     2.644     2.543
    91   7 N        1.843    -0.251    27.397     7.757
    92   6 C        3.751    -0.037    21.295     6.581
    93   6 C        2.900     0.045    26.986     8.518
    94   1 H        0.926     0.028     2.611     2.527
    95   7 N        2.860     0.022    20.856     6.783
    96   1 H        0.924     0.083     1.952     2.185
    97   1 H        0.924     0.092     1.858     2.131
    98   1 H        0.925     0.031     2.566     2.505
    99   6 C        3.072    -0.026    28.567     8.764
   100   6 C        3.071    -0.029    28.641     8.775
   101   6 C        3.059    -0.075    29.818     8.955
   102   1 H        0.926     0.018     2.768     2.602
   103   6 C        3.061    -0.075    29.804     8.953
   104   1 H        0.926     0.023     2.685     2.563
   105   1 H        0.926     0.012     2.865     2.647
   106   1 H        0.926     0.010     2.883     2.655

 Mol. C6AA /au·bohr⁶  :     121727.039372
 Mol. C8AA /au·bohr⁸  :    3216814.320163
 Mol. α(0) /au        :        542.268632


Wiberg/Mayer (AO) data.
largest (>0.10) Wiberg bond orders for each atom

 ---------------------------------------------------------------------------
     #   Z sym  total        # sym  WBO       # sym  WBO       # sym  WBO
 ---------------------------------------------------------------------------
     1   7 N    3.382 --     6 C    1.401     2 C    1.324    19 Ir   0.399
     2   6 C    3.979 --     3 C    1.353     1 N    1.324    10 C    1.082
     3   6 C    3.987 --     4 C    1.477     2 C    1.353     9 H    0.961
                             6 C    0.106
     4   6 C    3.986 --     3 C    1.477     5 C    1.393    84 H    0.968
     5   6 C    3.979 --     6 C    1.450     4 C    1.393     8 H    0.968
     6   6 C    3.978 --     5 C    1.450     1 N    1.401     7 H    0.957
                             3 C    0.106
     7   1 H    0.997 --     6 C    0.957
     8   1 H    0.996 --     5 C    0.968
     9   1 H    0.997 --     3 C    0.961
    10   6 C    3.979 --    15 C    1.360    11 N    1.314     2 C    1.082
    11   7 N    3.385 --    12 C    1.397    10 C    1.314    19 Ir   0.404
    12   6 C    3.973 --    13 C    1.449    11 N    1.397    18 H    0.949
                            15 C    0.105
    13   6 C    3.982 --    12 C    1.449    14 C    1.395    17 H    0.969
    14   6 C    3.983 --    15 C    1.471    13 C    1.395    85 H    0.969
    15   6 C    3.989 --    14 C    1.471    10 C    1.360    16 H    0.961
                            12 C    0.105
    16   1 H    0.997 --    15 C    0.961
    17   1 H    0.996 --    13 C    0.969
    18   1 H    0.994 --    12 C    0.949
    19  77 Ir   5.106 --    63 B    0.878    42 B    0.874    21 B    0.736
                            86 C    0.578    20 H    0.524    11 N    0.404
                             1 N    0.399
    20   1 H    0.990 --    19 Ir   0.524    86 C    0.357
    21   5 B    3.274 --    33 O    1.113    22 O    1.093    19 Ir   0.736
    22   8 O    2.197 --    21 B    1.093    23 C    0.942
    23   6 C    3.943 --    24 C    0.996    28 C    0.990    22 O    0.942
                            32 C    0.941
    24   6 C    3.994 --    23 C    0.996    26 H    0.984    27 H    0.983
                            25 H    0.983
    25   1 H    0.997 --    24 C    0.983
    26   1 H    0.997 --    24 C    0.984
    27   1 H    0.997 --    24 C    0.983
    28   6 C    3.996 --    23 C    0.990    31 H    0.985    29 H    0.984
                            30 H    0.984
    29   1 H    0.997 --    28 C    0.984
    30   1 H    0.998 --    28 C    0.984
    31   1 H    0.999 --    28 C    0.985
    32   6 C    3.939 --    38 C    0.997    34 C    0.991    23 C    0.941
                            33 O    0.938
    33   8 O    2.202 --    21 B    1.113    32 C    0.938
    34   6 C    3.993 --    32 C    0.991    36 H    0.983    37 H    0.982
                            35 H    0.980
    35   1 H    0.997 --    34 C    0.980
    36   1 H    0.997 --    34 C    0.983
    37   1 H    0.997 --    34 C    0.982
    38   6 C    3.994 --    32 C    0.997    41 H    0.984    39 H    0.983
                            40 H    0.983
    39   1 H    0.998 --    38 C    0.983
    40   1 H    0.997 --    38 C    0.983
    41   1 H    0.997 --    38 C    0.984
    42   5 B    3.341 --    54 O    1.109    43 O    1.108    19 Ir   0.874
    43   8 O    2.225 --    42 B    1.108    44 C    0.938
    44   6 C    3.936 --    45 C    0.996    49 C    0.991    43 O    0.938
                            53 C    0.936
    45   6 C    3.992 --    44 C    0.996    48 H    0.983    47 H    0.981
                            46 H    0.981
    46   1 H    0.997 --    45 C    0.981
    47   1 H    0.996 --    45 C    0.981
    48   1 H    0.996 --    45 C    0.983
    49   6 C    3.993 --    44 C    0.991    50 H    0.983    51 H    0.983
                            52 H    0.977
    50   1 H    0.997 --    49 C    0.983
    51   1 H    0.997 --    49 C    0.983
    52   1 H    0.997 --    49 C    0.977
    53   6 C    3.937 --    55 C    0.995    59 C    0.992    44 C    0.936
                            54 O    0.936
    54   8 O    2.229 --    42 B    1.109    53 C    0.936
    55   6 C    3.994 --    53 C    0.995    58 H    0.983    57 H    0.983
                            56 H    0.982
    56   1 H    0.997 --    55 C    0.982
    57   1 H    0.997 --    55 C    0.983
    58   1 H    0.996 --    55 C    0.983
    59   6 C    3.994 --    53 C    0.992    61 H    0.983    62 H    0.983
                            60 H    0.981
    60   1 H    0.998 --    59 C    0.981
    61   1 H    0.996 --    59 C    0.983
    62   1 H    0.997 --    59 C    0.983
    63   5 B    3.364 --    75 O    1.125    64 O    1.103    19 Ir   0.878
    64   8 O    2.226 --    63 B    1.103    65 C    0.936
    65   6 C    3.937 --    70 C    0.997    66 C    0.991    74 C    0.939
                            64 O    0.936
    66   6 C    3.991 --    65 C    0.991    69 H    0.983    68 H    0.982
                            67 H    0.978
    67   1 H    0.996 --    66 C    0.978
    68   1 H    0.997 --    66 C    0.982
    69   1 H    0.996 --    66 C    0.983
    70   6 C    3.992 --    65 C    0.997    72 H    0.983    73 H    0.982
                            71 H    0.982
    71   1 H    0.996 --    70 C    0.982
    72   1 H    0.996 --    70 C    0.983
    73   1 H    0.997 --    70 C    0.982
    74   6 C    3.934 --    76 C    0.997    80 C    0.992    65 C    0.939
                            75 O    0.933
    75   8 O    2.237 --    63 B    1.125    74 C    0.933
    76   6 C    3.992 --    74 C    0.997    77 H    0.982    78 H    0.982
                            79 H    0.982
    77   1 H    0.996 --    76 C    0.982
    78   1 H    0.997 --    76 C    0.982
    79   1 H    0.997 --    76 C    0.982
    80   6 C    3.995 --    74 C    0.992    81 H    0.984    82 H    0.983
                            83 H    0.983
    81   1 H    0.998 --    80 C    0.984
    82   1 H    0.997 --    80 C    0.983
    83   1 H    0.996 --    80 C    0.983
    84   1 H    0.996 --     4 C    0.968
    85   1 H    0.996 --    14 C    0.969
    86   6 C    3.942 --    87 C    1.406    88 C    1.328    19 Ir   0.578
                            20 H    0.357    93 C    0.104
    87   6 C    3.990 --    89 C    1.423    86 C    1.406    90 H    0.963
    88   6 C    3.977 --    91 N    1.425    86 C    1.328    92 C    0.988
                            89 C    0.102
    89   6 C    3.988 --    93 C    1.433    87 C    1.423    94 H    0.969
                            88 C    0.102
    90   1 H    0.999 --    87 C    0.963
    91   7 N    3.063 --    88 C    1.425    93 C    1.416
    92   6 C    3.971 --    95 N    1.002    88 C    0.988    97 H    0.941
                            96 H    0.937
    93   6 C    3.980 --    89 C    1.433    91 N    1.416    98 H    0.963
                            86 C    0.104
    94   1 H    0.998 --    89 C    0.969
    95   7 N    3.653 --    99 C    1.234   100 C    1.233    92 C    1.002
    96   1 H    0.993 --    92 C    0.937
    97   1 H    0.991 --    92 C    0.941
    98   1 H    0.996 --    93 C    0.963
    99   6 C    3.943 --   101 C    1.542    95 N    1.234   102 H    0.967
                           100 C    0.128
   100   6 C    3.943 --   103 C    1.543    95 N    1.233   104 H    0.971
                            99 C    0.128
   101   6 C    3.976 --    99 C    1.542   103 C    1.334   105 H    0.976
   102   1 H    1.000 --    99 C    0.967
   103   6 C    3.976 --   100 C    1.543   101 C    1.334   106 H    0.976
   104   1 H    0.999 --   100 C    0.971
   105   1 H    1.000 --   101 C    0.976
   106   1 H    1.000 --   103 C    0.976
 ---------------------------------------------------------------------------

Topologies differ in total number of bonds
Writing topology from bond orders to xtbtopo.mol

molecular dipole:
                 x           y           z       tot (Debye)
 q only:       -0.599       0.388      -2.883
   full:       -2.236       0.424      -3.701      11.044
molecular quadrupole (traceless):
                xx          xy          yy          xz          yz          zz
 q only:       22.515       5.258      16.799     -19.141      20.035     -39.314
  q+dip:       24.834       9.127      21.530     -24.904      25.889     -46.364
   full:       22.863       9.488      23.323     -27.842      22.398     -46.186


           -------------------------------------------------
          | TOTAL ENERGY             -152.897182577757 Eh   |
          | GRADIENT NORM               0.031347006334 Eh/α |
          | HOMO-LUMO GAP               0.841016430423 eV   |
           -------------------------------------------------

------------------------------------------------------------------------
 * finished run on 2021/10/08 at 07:17:17.772     
------------------------------------------------------------------------
 total:
 * wall-time:     0 d,  0 h,  0 min,  0.159 sec
 *  cpu-time:     0 d,  0 h,  0 min,  0.931 sec
 * ratio c/w:     5.858 speedup
 SCF:
 * wall-time:     0 d,  0 h,  0 min,  0.115 sec
 *  cpu-time:     0 d,  0 h,  0 min,  0.686 sec
 * ratio c/w:     5.976 speedup

