94
 energy: -136.951190904769 gnorm: 0.000175276449 xtb: 6.4.0 (f63f532)
N        -0.91468998382347   -2.05684981209503   -0.35217246253580
C        -2.18636404723845   -1.63512321547327   -0.46938748975457
C        -3.10494512763920   -2.33257854565308   -1.26469769963838
C        -2.69832856646643   -3.44902103054860   -1.96263763174543
C        -1.37223082331144   -3.85854395248088   -1.85075350649369
C        -0.53138292974826   -3.13361031301239   -1.03179006580333
H         0.50202396020065   -3.42221919817050   -0.90091025258521
H        -1.00890174026845   -4.72397762178074   -2.38041354606617
H        -4.13065990131176   -2.00961885924241   -1.32901125446264
C        -2.54050639236200   -0.43010923831324    0.27232734708138
N        -1.60635131239733    0.05915147187033    1.11501582164167
C        -1.89560177157042    1.15007842962304    1.82147612710186
C        -3.09805483804614    1.82111642147180    1.73003304354737
C        -4.05927044972046    1.34575041397076    0.84288948405208
C        -3.77253891330624    0.21369744573465    0.11040426692051
H        -4.49817207710393   -0.16240207603823   -0.59126218879138
H        -3.27992180942136    2.69492317715873    2.33425617777189
H        -1.11198310634490    1.49533359375143    2.47831389389420
Ir        0.42150000000009   -0.81650000000001    0.91330000000005
H         0.87259999999995   -2.23029999999997    1.54050000000019
B         0.41613458664693    0.61223231882422   -0.60440057174241
O        -0.21615622618544    0.32295339531850   -1.79736992865034
C        -0.26750929501959    1.49387195752851   -2.62164737192140
C         0.01357345550724    1.11062187389574   -4.07237030933584
H         0.92964763850255    0.53395727917996   -4.14519435733407
H         0.09262896575924    2.00354369489351   -4.68694983477855
H        -0.80417910479604    0.49857988835949   -4.44529610848131
C        -1.69098803560557    2.05813887418063   -2.51221931753153
H        -1.81760708735017    2.92745876367326   -3.15041687463611
H        -2.39550201436647    1.28750916401445   -2.81848124744881
H        -1.91067820909516    2.32453695982705   -1.48019162312019
C         0.80529855989814    2.42247240084265   -1.96251606064058
O         0.88815913519656    1.90279828158114   -0.62689982542171
C         2.19529214332331    2.24966801344821   -2.58647447889065
H         2.48089011891024    1.20197435189579   -2.53282312976903
H         2.21667440802338    2.60193058709566   -3.61360653724461
H         2.91284778524548    2.81952922606215   -2.00093383680409
C         0.44218082281319    3.90535777545157   -1.92451055640978
H        -0.44728915081220    4.07911000027995   -1.32707708538310
H         1.26354943946162    4.46106066732790   -1.47866027928708
H         0.27844009520599    4.27349498212405   -2.93402094775904
B         1.56601685597685    0.63336063916523    1.88859396939389
O         2.93382258060002    0.75713606364308    1.91908317474252
C         3.30026652881613    2.03109875270305    2.47153460588184
C         4.53882351968274    1.87864034719297    3.35282317551022
H         4.39796777168078    1.10370407320446    4.09899506253217
H         5.38605484597830    1.59958052387024    2.73173333143452
H         4.76232829076320    2.82068673151217    3.84597450581043
C         3.62527539703693    2.94119093062877    1.28131206494938
H         3.89661222591933    3.94125649648812    1.60560609770302
H         4.45833994358830    2.50864778735308    0.73181614408252
H         2.76606657016127    2.97216546512064    0.61623362886601
C         1.99921526190595    2.46493734222079    3.22992549904931
O         0.99017379973222    1.64836290632479    2.61815538699893
C         1.62019531155943    3.93564241043250    3.06681008168325
H         1.40610082352198    4.16125486143285    2.02753126615754
H         0.72662895739927    4.13923801165703    3.65178803184152
H         2.42471926777046    4.57249364590202    3.42405593792167
C         2.02349567444596    2.11260241881350    4.72268621367110
H         2.25379680717356    1.05911456054653    4.85607970334883
H         2.74807885940353    2.72054456450942    5.25546525858259
H         1.03554449726876    2.29251995782042    5.14055031411128
B         2.27819999999932   -1.33090000000023    0.17410000000013
O         3.09453276867115   -2.29587490807860    0.72495961571838
C         4.38223069222708   -2.27869213450496    0.09341077319098
C         5.32624749510142   -1.54400696580627    1.05119758166295
H         4.90812944157599   -0.56714212559657    1.27707604488430
H         5.38154451605290   -2.10759081807304    1.97928639308406
H         6.32413628050987   -1.44973930882533    0.63475388796419
C         4.87231006754729   -3.71322485032066   -0.10164220179197
H         5.00881421684284   -4.17182530131611    0.87419552525857
H         5.82253503381078   -3.71506645342791   -0.62797639451174
H         4.15114508818762   -4.30696922627041   -0.65324469743368
C         4.10733681265448   -1.48307658805606   -1.23139412918078
O         2.86645606053457   -0.81330982513041   -0.95296552180330
C         5.16857442777361   -0.44263287317109   -1.58392491855547
H         6.13991458070872   -0.91662099360158   -1.69342017203685
H         4.90255199947488    0.03409046766257   -2.52387345473458
H         5.21603028181631    0.32302037079756   -0.81745259718006
C         3.86792293812637   -2.38995254335681   -2.44577927880620
H         3.08529578637376   -3.11171814917959   -2.22852992606504
H         3.53363664314070   -1.77492100797199   -3.27782339987331
H         4.77818776243449   -2.90781466038275   -2.73202558300637
H        -3.39514256157460   -3.99443155100557   -2.58042270303511
H        -5.00605333727083    1.85089458702871    0.72762356193150
C         0.23589999999932   -1.68139999999875    2.96029999999983
C        -1.05194987941796   -2.04093525783556    3.38577252786628
C         1.16742353650702   -1.55897300894346    3.98716779706231
N        -1.40156000714913   -2.16121410850272    4.65141592039880
H        -1.85394796807963   -2.24531778902262    2.68786935510803
C         0.72300042810998   -1.70277829930662    5.29670131766996
H         2.20462787564456   -1.35729818308604    3.76903997117814
N        -0.53319456356314   -1.97751383286397    5.60599528533313
H         1.38918268687035   -1.60016535477814    6.14331588271510
