94
 energy: -136.936032244114 gnorm: 0.080014850241 xtb: 6.4.0 (f63f532)
N        -0.96510000000000   -2.11530000000000   -0.24090000000000
C        -2.24700000000000   -1.69840000000000   -0.36220000000000
C        -3.14040000000000   -2.36820000000000   -1.21200000000000
C        -2.70220000000000   -3.47560000000000   -1.93050000000000
C        -1.37780000000000   -3.89880000000000   -1.78760000000000
C        -0.54290000000000   -3.18670000000000   -0.93510000000000
H         0.49810000000000   -3.45630000000000   -0.78940000000000
H        -0.99570000000000   -4.76030000000000   -2.32770000000000
H        -4.16500000000000   -2.02890000000000   -1.31830000000000
C        -2.62130000000000   -0.50950000000000    0.44100000000000
N        -1.62600000000000    0.07330000000000    1.16020000000000
C        -1.89680000000000    1.15240000000000    1.91690000000000
C        -3.17230000000000    1.70330000000000    1.99650000000000
C        -4.20510000000000    1.11740000000000    1.26270000000000
C        -3.92610000000000    0.00250000000000    0.47820000000000
H        -4.71960000000000   -0.46420000000000   -0.09520000000000
H        -3.34630000000000    2.57510000000000    2.62070000000000
H        -1.04450000000000    1.57420000000000    2.43690000000000
Ir        0.42150000000000   -0.81650000000000    0.91330000000000
H         0.87260000000000   -2.23030000000000    1.54050000000000
B         0.50670000000000    0.41560000000000   -0.81540000000000
O         0.19500000000000   -0.04700000000000   -2.09150000000000
C         0.00650000000000    1.10040000000000   -2.95430000000000
C         0.49020000000000    0.74740000000000   -4.35780000000000
H         1.51610000000000    0.37380000000000   -4.33700000000000
H         0.44730000000000    1.62240000000000   -5.01670000000000
H        -0.14740000000000   -0.03390000000000   -4.78430000000000
C        -1.50120000000000    1.39560000000000   -2.96670000000000
H        -1.75370000000000    2.21460000000000   -3.64850000000000
H        -2.03200000000000    0.49450000000000   -3.28930000000000
H        -1.85170000000000    1.65210000000000   -1.96220000000000
C         0.84230000000000    2.20670000000000   -2.22040000000000
O         0.75200000000000    1.78260000000000   -0.83690000000000
C         2.32930000000000    2.18620000000000   -2.59900000000000
H         2.74130000000000    1.18500000000000   -2.45750000000000
H         2.48870000000000    2.51300000000000   -3.63180000000000
H         2.87200000000000    2.86270000000000   -1.93200000000000
C         0.28440000000000    3.62290000000000   -2.33660000000000
H        -0.72650000000000    3.69040000000000   -1.92910000000000
H         0.92130000000000    4.31480000000000   -1.77610000000000
H         0.26430000000000    3.94810000000000   -3.38320000000000
B         1.56300000000000    0.60960000000000    1.84840000000000
O         2.92780000000000    0.55230000000000    2.15020000000000
C         3.36330000000000    1.88660000000000    2.50260000000000
C         4.53140000000000    1.78590000000000    3.47740000000000
H         4.27910000000000    1.16090000000000    4.33690000000000
H         5.39390000000000    1.33790000000000    2.97340000000000
H         4.82390000000000    2.77870000000000    3.83820000000000
C         3.79700000000000    2.56850000000000    1.19670000000000
H         4.20020000000000    3.57090000000000    1.37680000000000
H         4.56740000000000    1.95560000000000    0.72110000000000
H         2.95240000000000    2.63260000000000    0.50540000000000
C         2.05040000000000    2.50090000000000    3.09320000000000
O         1.03750000000000    1.81620000000000    2.31910000000000
C         1.89100000000000    4.00450000000000    2.88650000000000
H         1.87290000000000    4.25440000000000    1.82410000000000
H         0.94940000000000    4.34260000000000    3.33170000000000
H         2.71080000000000    4.55150000000000    3.36630000000000
C         1.82470000000000    2.13200000000000    4.56520000000000
H         1.92610000000000    1.05330000000000    4.71320000000000
H         2.52610000000000    2.65280000000000    5.22540000000000
H         0.80630000000000    2.41580000000000    4.84900000000000
B         2.27820000000000   -1.33090000000000    0.17410000000000
O         2.89460000000000   -2.57740000000000    0.38450000000000
C         4.26930000000000   -2.48200000000000   -0.07210000000000
C         5.10900000000000   -2.05380000000000    1.14010000000000
H         4.76350000000000   -1.08740000000000    1.51750000000000
H         4.98050000000000   -2.79470000000000    1.93590000000000
H         6.17420000000000   -1.99290000000000    0.89300000000000
C         4.71950000000000   -3.84660000000000   -0.58470000000000
H         4.75280000000000   -4.56130000000000    0.24420000000000
H         5.72330000000000   -3.78370000000000   -1.02010000000000
H         4.03500000000000   -4.23600000000000   -1.34170000000000
C         4.16440000000000   -1.36220000000000   -1.16300000000000
O         3.08520000000000   -0.55030000000000   -0.65400000000000
C         5.40720000000000   -0.48870000000000   -1.31550000000000
H         6.27320000000000   -1.09010000000000   -1.61530000000000
H         5.23300000000000    0.26930000000000   -2.08590000000000
H         5.64270000000000    0.02650000000000   -0.38240000000000
C         3.71800000000000   -1.89830000000000   -2.53110000000000
H         2.82530000000000   -2.52160000000000   -2.42740000000000
H         3.46090000000000   -1.05250000000000   -3.17550000000000
H         4.50570000000000   -2.48290000000000   -3.01790000000000
H        -3.38500000000000   -4.00130000000000   -2.59310000000000
H        -5.21400000000000    1.52080000000000    1.29960000000000
C         0.23590000000000   -1.68140000000000    2.96030000000000
C        -0.98743167876539   -2.10716861535105    3.47955071356051
C         1.30739845030254   -1.83563198989949    3.84313717753649
N        -1.15199709570559   -2.60529511228968    4.69900494709688
H        -1.90467536704184   -2.07375681718777    2.90474530170546
C         1.08335251861746   -2.38638521506044    5.09421781889377
H         2.31039252249851   -1.58016404024071    3.52971016433118
N        -0.12110573110621   -2.77273093273135    5.50507143702579
H         1.88891517134321   -2.57609035350792    5.79247151638782
94
 energy: -136.942853392198 gnorm: 0.048899856363 xtb: 6.4.0 (f63f532)
N        -0.96090041562755   -2.09946601063386   -0.25511968064013
C        -2.23874843659228   -1.69001522596209   -0.36596339414546
C        -3.13420215815482   -2.36250140737787   -1.20602900066425
C        -2.70395470569527   -3.46420055982764   -1.92201872454498
C        -1.38455866266549   -3.88325030153600   -1.78350198645567
C        -0.55359276840012   -3.16800099359413   -0.94283562455520
H         0.48034146566231   -3.44766322360084   -0.79382952685843
H        -1.00812611945582   -4.74308813867307   -2.31875468021424
H        -4.15471943601022   -2.02735808335972   -1.30905537155426
C        -2.61029399732786   -0.51239658170856    0.43457830266464
N        -1.61838199512135    0.06905553977986    1.14503528522277
C        -1.89732868170518    1.13875214235673    1.89409602282605
C        -3.16496754980212    1.68637351148078    1.98377948881223
C        -4.19556633411093    1.10189782575397    1.25730073649601
C        -3.91359338776351   -0.00431849777613    0.47622179759642
H        -4.70487793490491   -0.46843635411854   -0.09188648117881
H        -3.33997338873924    2.54891894007886    2.61114619285777
H        -1.05431991034192    1.55832351249243    2.42231313002362
Ir        0.42150000000000   -0.81650000000000    0.91330000000000
H         0.87260000000000   -2.23030000000000    1.54050000000000
B         0.49090677524044    0.42384737055413   -0.79124019823507
O         0.17505460812848   -0.03536248682528   -2.06259975470572
C         0.00985185636179    1.09713544445368   -2.94301494441293
C         0.48903280597555    0.74803828113800   -4.34793591920401
H         1.50809810143774    0.37164756137449   -4.32702834053822
H         0.44383840428322    1.62374889866737   -4.99586320641804
H        -0.14969423884783   -0.02771402776883   -4.76862840953560
C        -1.49428392539359    1.39921132233325   -2.96876231564675
H        -1.73259951913657    2.21226591403922   -3.65266193916731
H        -2.02414619378318    0.50224681826646   -3.28918106819815
H        -1.84100497883135    1.65396019567643   -1.96712431616874
C         0.83160104405985    2.20703501779075   -2.21147626219646
O         0.75570433533634    1.77897058500781   -0.83414700222825
C         2.31405704717620    2.19138017968803   -2.59909852373313
H         2.71889678009828    1.19240407591535   -2.44997676776154
H         2.46504860703202    2.51335592443565   -3.62864189985061
H         2.85619302977814    2.86622757923667   -1.93776122940581
C         0.27964921108364    3.62299720466592   -2.33765973522433
H        -0.72364222266953    3.69182457880018   -1.92544992935334
H         0.91920635874467    4.30674218902307   -1.78109957251954
H         0.26192925731466    3.93566539391732   -3.38172530937219
B         1.56521057200613    0.61632273668646    1.85806786358252
O         2.92458198471596    0.56284929644068    2.14040866166222
C         3.36344026118017    1.88558866164207    2.51046765580880
C         4.53347283561371    1.78828564851527    3.48075830865473
H         4.28213070576701    1.16057232550785    4.33169859741573
H         5.38847162235064    1.34436084388320    2.97262942380321
H         4.81572138712698    2.77876078796876    3.83619959514697
C         3.79833331399614    2.57238246573309    1.21146589978719
H         4.19948885554273    3.56795539602040    1.39592358237634
H         4.56262649641544    1.96139648653789    0.73431710511665
H         2.95007756766455    2.62528289648549    0.53027159308964
C         2.05338209419758    2.50434204670754    3.09055113819657
O         1.04039533848207    1.80739118671438    2.33794453480765
C         1.89362431519180    4.00617164703842    2.88995096857452
H         1.86804750735616    4.24962854750567    1.83166177364397
H         0.95626098958435    4.33486068333314    3.33695052974937
H         2.71403857164820    4.54225062432283    3.36620540552424
C         1.83217462863543    2.13985772775574    4.56279008270466
H         1.93512057919825    1.06417922263802    4.70224073288520
H         2.53301934382496    2.66109527069831    5.21205994150805
H         0.81758059085507    2.41749454650030    4.84793445520967
B         2.27820000000000   -1.33090000000000    0.17410000000000
O         2.90128185290408   -2.56067841889403    0.39282577657286
C         4.26569429037397   -2.48284142272897   -0.07825389556469
C         5.11071208782408   -2.05815454350431    1.12728041057767
H         4.75529266501793   -1.09777082600901    1.49872166401809
H         4.98074457459168   -2.79435752195155    1.91989306392223
H         6.16808177535955   -1.99800999501966    0.87468857121530
C         4.72014916694322   -3.84473918327131   -0.58880234906606
H         4.75064838308723   -4.54970332347651    0.24068256130245
H         5.71767496935034   -3.77252420895619   -1.02127494195532
H         4.03447323092095   -4.23208311582937   -1.33756345272218
C         4.16563982532247   -1.35960422789022   -1.15826024593395
O         3.07270456408496   -0.56350423033190   -0.66161335981934
C         5.40859059746976   -0.49082575578488   -1.31580455316157
H         6.26466112316295   -1.09641910127818   -1.61194055465128
H         5.22999406253438    0.26021193177737   -2.08403969926130
H         5.63690709955989    0.02364944039531   -0.38689335079761
C         3.72856071994785   -1.89832919140266   -2.52643719919543
H         2.83679437347591   -2.51427659487150   -2.41846472977122
H         3.47136832349715   -1.05654867267097   -3.16790733857547
H         4.51892551714699   -2.47481871647703   -3.00414228035906
H        -3.38343837714661   -3.98888324622338   -2.57961197799187
H        -5.19964621029789    1.50228141144743    1.29838551216107
C         0.23590000000000   -1.68140000000000    2.96030000000000
C        -0.99238106202982   -2.10414499073475    3.48268803187862
C         1.30352393772646   -1.82629401745666    3.85249481149708
N        -1.15618118691080   -2.59270757997662    4.70022658332413
H        -1.90834165000166   -2.07535120257080    2.90562806695259
C         1.06727889019625   -2.37083927560075    5.10502471046507
H         2.30703401118053   -1.57037908541863    3.54469097368893
N        -0.13683899666021   -2.75394517895564    5.50513189649663
H         1.86720124334355   -2.55713928852951    5.81025061876721
94
 energy: -136.944865554431 gnorm: 0.038283082123 xtb: 6.4.0 (f63f532)
N        -0.95257376683330   -2.09156080120922   -0.26642421036220
C        -2.22804205924058   -1.68370216157251   -0.37059687936753
C        -3.12944444739730   -2.35544405804421   -1.20376983771734
C        -2.70773989910953   -3.45479991567425   -1.92061487826143
C        -1.38882054795562   -3.87381770180425   -1.78735546277104
C        -0.55719841162181   -3.15802599516321   -0.95264169449900
H         0.47563135995579   -3.44117115813941   -0.81236187133311
H        -1.01835839510698   -4.73365504560667   -2.32021389477720
H        -4.14901527981742   -2.02233105489510   -1.29724011733720
C        -2.59618687256947   -0.51469911037147    0.42711025675841
N        -1.60746562994718    0.06300361658677    1.13811536241815
C        -1.89303679185275    1.12648581810242    1.88311496702697
C        -3.15722439016473    1.67277340634138    1.97745299984194
C        -4.18781136758307    1.08781860215830    1.25224624815483
C        -3.90059339051867   -0.01095542405228    0.46981048097714
H        -4.68934745113583   -0.47769254484470   -0.09492275861128
H        -3.33327968329834    2.52965069471664    2.60660823630066
H        -1.05550704656885    1.55242820429659    2.41178063435487
Ir        0.42150000000000   -0.81650000000000    0.91330000000000
H         0.87260000000000   -2.23030000000000    1.54050000000000
B         0.49421435892538    0.43415440956623   -0.76915418291940
O         0.15487001164817   -0.02520190648308   -2.03205902336945
C         0.00419924359113    1.09547230422912   -2.92218773450487
C         0.48803150279184    0.74217847723972   -4.32477233644205
H         1.50346049777926    0.36249232858158   -4.30535720827742
H         0.44250751321527    1.62138640090970   -4.96224869274390
H        -0.15451272844809   -0.02730726480597   -4.74436536183351
C        -1.49819344230683    1.40660385694604   -2.96688775262781
H        -1.71826384185425    2.21617180352078   -3.65593862380608
H        -2.02724442148849    0.51216949231598   -3.28867099998126
H        -1.84735086557381    1.66420521470022   -1.96918738685408
C         0.82291269498472    2.20750757623524   -2.19707360245010
O         0.75959565995148    1.78244371282169   -0.82441586238607
C         2.30260272220891    2.19793036290197   -2.59555151154796
H         2.70517514562400    1.20072299313803   -2.44030496791335
H         2.43963385099952    2.51321974107923   -3.62583070249886
H         2.84448092939585    2.87726244299022   -1.94235766377277
C         0.26773967252589    3.62175652518254   -2.33106699733155
H        -0.73126013197179    3.69586644071881   -1.91506767309987
H         0.91241371975016    4.30406945441596   -1.78390434618373
H         0.25021064650499    3.91822041929478   -3.37630546550586
B         1.56821150595115    0.62099627001934    1.86864191862839
O         2.92282561508877    0.57076180244644    2.13266088805692
C         3.36239441469692    1.88489750563576    2.51546051683594
C         4.53172305209121    1.78756283045756    3.48725510458523
H         4.28485943653747    1.15545083647187    4.33326478796861
H         5.38410719486453    1.35121904005811    2.97403102522008
H         4.80379317273009    2.77779101049190    3.84045470194636
C         3.80072044724900    2.58120322979674    1.22318138234818
H         4.19818687659347    3.57282775582847    1.41578246860353
H         4.56422471021024    1.97333671524967    0.74561311767796
H         2.95063363722412    2.62840059957622    0.54699723792616
C         2.05441973973616    2.50252531097293    3.09479135764786
O         1.04275078904329    1.79798171118412    2.35580889611148
C         1.89566105827952    4.00392716630498    2.89159113293660
H         1.86190069562121    4.24556913898892    1.83535455245838
H         0.96331602245509    4.32848074074212    3.34505180418522
H         2.71954429423990    4.53153118821144    3.36302081033367
C         1.84384991962037    2.14714429512473    4.57152716427934
H         1.95037213072569    1.07312002327904    4.70630685847195
H         2.54690491280856    2.67266941716489    5.20932384816864
H         0.83109519126897    2.42088457088549    4.85794616841216
B         2.27820000000001   -1.33090000000000    0.17410000000000
O         2.90409322028266   -2.54746031854897    0.40263831512115
C         4.25919038987149   -2.47995328209345   -0.07955811496692
C         5.11658217188958   -2.05952585139220    1.11829939542713
H         4.75643351452745   -1.10240070663136    1.48778800693796
H         4.98882715313874   -2.79510376248557    1.90824405881697
H         6.16790651002251   -1.99986295291438    0.85559013605954
C         4.71200078278128   -3.84114719558643   -0.59420786946393
H         4.74586613917480   -4.54034658310013    0.23612558807507
H         5.70512523670025   -3.75894097576273   -1.02615752327065
H         4.02595060112563   -4.22974448370859   -1.33836832355891
C         4.16017683859857   -1.35846014984942   -1.15731496307147
O         3.05893297869438   -0.57266103067012   -0.66998547524999
C         5.40386748333424   -0.49040266563449   -1.31082786221103
H         6.25218293390917   -1.10296273204252   -1.60193704509592
H         5.22603059119781    0.25392824786231   -2.08172760977186
H         5.62922313459338    0.02613894501441   -0.38514032514642
C         3.73792133086066   -1.90003119102323   -2.52951808076659
H         2.84750866547966   -2.51373636456105   -2.42133130127753
H         3.48416680841880   -1.05973386255415   -3.17073492438611
H         4.53490303300973   -2.47133029701086   -2.99458857320633
H        -3.38953136870532   -3.98017672020140   -2.57059627972276
H        -5.19110253358530    1.48196344879222    1.29868772858860
C         0.23590000000000   -1.68140000000000    2.96029999999999
C        -0.99991202998225   -2.09731453742918    3.47999774641082
C         1.29465212413017   -1.81212704934905    3.86723603373552
N        -1.17092695387731   -2.56957956835900    4.70018664884568
H        -1.91107504002215   -2.07334786618062    2.89495463235391
C         1.04244370409035   -2.34170874899430    5.12461631978802
H         2.29977929208438   -1.55526066067276    3.56809532505170
N        -0.16484947701435   -2.72026662506746    5.51267278238956
H         1.83425593956010   -2.51627417865555    5.84222478728877
94
 energy: -136.945804280278 gnorm: 0.037357136870 xtb: 6.4.0 (f63f532)
N        -0.94231321534175   -2.08761948450190   -0.27990291572994
C        -2.21872360916188   -1.68059080758692   -0.37674739432952
C        -3.12623921676953   -2.35275755168597   -1.20401468362928
C        -2.71096206870723   -3.45242412702016   -1.92246293273406
C        -1.38987122831918   -3.87075607865520   -1.79744381101273
C        -0.55322755469688   -3.15303947153646   -0.96914546608909
H         0.47984364460753   -3.43970673878503   -0.83586843768505
H        -1.02409215856545   -4.73160907300285   -2.33056482956851
H        -4.14597884880908   -2.01881082114086   -1.28971145193046
C        -2.58488296170871   -0.51591850781230    0.42154342514436
N        -1.59680541112483    0.06206030385366    1.13339590030031
C        -1.88630961074212    1.12388223092841    1.87770519060727
C        -3.15161106688462    1.66594171371791    1.97630904878617
C        -4.18284365933736    1.07822208226744    1.25173262835138
C        -3.89127270723578   -0.01590148576980    0.46607337581442
H        -4.67751368121019   -0.48415599129771   -0.10031606821625
H        -3.32949726722781    2.51926076121203    2.60840101582823
H        -1.05235608039066    1.55308536128730    2.40978344112851
Ir        0.42150000000000   -0.81650000000000    0.91330000000000
H         0.87260000000000   -2.23030000000000    1.54050000000000
B         0.47987516943326    0.44921328308126   -0.74824227413193
O         0.13163754599382   -0.01528355829799   -2.00617627332120
C        -0.00599396186521    1.09705531228728   -2.90293929653321
C         0.48500369764029    0.73439615375157   -4.30146896193106
H         1.49790088525818    0.34907605092903   -4.27649543012514
H         0.44610145796220    1.61397260487425   -4.93797381921343
H        -0.16066412154256   -0.03189304644090   -4.72136029392087
C        -1.50718134269989    1.41630499411598   -2.96413986461608
H        -1.71214929085918    2.22402704432128   -3.65915020848484
H        -2.03686556572133    0.52344762636097   -3.28821178253700
H        -1.86460837570643    1.67966451845137   -1.97117187791367
C         0.81337590110163    2.21128476123953   -2.18187251848863
O         0.76018424837384    1.79177947724897   -0.81050749347722
C         2.29119228856475    2.20459019112589   -2.59061688860856
H         2.69646590882669    1.20952626044455   -2.42985713007879
H         2.41782104122482    2.51252551943878   -3.62389100492902
H         2.83410188369813    2.89105681231607   -1.94621992299652
C         0.25585458547751    3.62490541578501   -2.32194021344756
H        -0.74058200107485    3.70207670757515   -1.90108267241445
H         0.90431853412672    4.31118175201584   -1.78471057582457
H         0.23299048311212    3.90928678116459   -3.37000423308173
B         1.56978301305220    0.62229003194145    1.87664716173413
O         2.92386713671118    0.57489022163183    2.12537581714007
C         3.36256600878162    1.88405930070495    2.51951721221284
C         4.53195138732514    1.78467544026301    3.49256021583107
H         4.28812757386400    1.14663203767209    4.33466624551856
H         5.38628378854368    1.35624128236415    2.97642554976685
H         4.79654779427766    2.77489393104804    3.85017923854713
C         3.80349267638846    2.59093983284294    1.23299570245875
H         4.19687271919876    3.58170413825445    1.43457235236928
H         4.57011387110836    1.98812291747448    0.75445267659728
H         2.95428086132411    2.63851314950323    0.55628853368296
C         2.05545632454318    2.49999884167720    3.10224482108640
O         1.04223329050311    1.78924195754755    2.37491459116873
C         1.89446048411991    4.00147593096628    2.89511972334350
H         1.85167227588318    4.24061557879006    1.83877794806872
H         0.96657490251242    4.32693057256304    3.35644271211918
H         2.72361333009492    4.52716484884556    3.35837486774048
C         1.85607658199581    2.15316666176982    4.58360057426575
H         1.96708736377206    1.08035202042809    4.72180420366922
H         2.56265688152877    2.68525174998342    5.21111482616904
H         0.84458586558782    2.42535174178978    4.87453867421869
B         2.27820000000001   -1.33090000000000    0.17410000000000
O         2.90687368468217   -2.53973726792980    0.41308504844674
C         4.25501429865354   -2.47783938348918   -0.08014633212208
C         5.12409619390825   -2.05974861787713    1.11116926509998
H         4.76534435765840   -1.10353274431381    1.48356570116613
H         5.00182631230988   -2.79658197662228    1.90031018454585
H         6.17211715110804   -2.00024867944538    0.83820011951189
C         4.70323059600438   -3.84048037050528   -0.59764932205437
H         4.74180173684701   -4.53846460639142    0.23305658690470
H         5.69347704314672   -3.75465757520129   -1.03418193338053
H         4.01362030741322   -4.22921919636186   -1.33806154388952
C         4.15532910396453   -1.35752535041103   -1.15883361587774
O         3.04775021216685   -0.57769344877431   -0.68030910341566
C         5.39847992507466   -0.48685273054782   -1.30724358177587
H         6.24623133746731   -1.10281901980976   -1.59123959147902
H         5.22402752772519    0.25358103209114   -2.08220264769818
H         5.61887773263138    0.03275894389728   -0.38243283155745
C         3.74640466192630   -1.90220344987527   -2.53482601853155
H         2.85686185895434   -2.51747153254089   -2.43256000541322
H         3.49751907885874   -1.06289320344865   -3.17884457869034
H         4.55032390539354   -2.47122529484853   -2.98927119708746
H        -3.39708693630489   -3.97797627463069   -2.56716984593755
H        -5.18756556451424    1.46700815968530    1.30176723024225
C         0.23590000000001   -1.68140000000000    2.96029999999999
C        -1.00761731852309   -2.08887580588676    3.47188684544562
C         1.28304391301552   -1.79648324006628    3.88320453213012
N        -1.19264580655776   -2.54101639455792    4.69777742901025
H        -1.91126266712085   -2.07211272158005    2.87478837008932
C         1.01401527368459   -2.30389209143084    5.14747003045960
H         2.29101387422826   -1.54036021739041    3.59372118352208
N        -0.19846585570033   -2.67646745803914    5.52535501744211
H         1.79638989301697   -2.46202669008811    5.87982612969002
94
 energy: -136.946882934236 gnorm: 0.037130349439 xtb: 6.4.0 (f63f532)
N        -0.93008434983378   -2.08714985676805   -0.29469905009578
C        -2.20822288226583   -1.67985620826631   -0.38393545972583
C        -3.12174021265867   -2.35208010071279   -1.20624992463752
C        -2.71303389125986   -3.45224218440109   -1.92729495350032
C        -1.38902007945091   -3.86915084753015   -1.81317679365444
C        -0.54584491943757   -3.15043019992773   -0.99088235541653
H         0.48938817809509   -3.43737358626345   -0.87009753850841
H        -1.02786925008265   -4.73029674626045   -2.34942849487046
H        -4.14219006387640   -2.01703035128556   -1.28287466198140
C        -2.57252975513389   -0.51829035549760    0.41649914914690
N        -1.58509386822882    0.05828391150355    1.13330919901858
C        -1.87775865923360    1.12091043841149    1.87708963941603
C        -3.14464399578120    1.65939376721743    1.97721366845397
C        -4.17619318938735    1.06967019875257    1.25167783998242
C        -3.88016503111394   -0.01922692719439    0.46099611406549
H        -4.66358307081381   -0.48808500928069   -0.10933171395300
H        -3.32443167940297    2.51015494673264    2.61224212636863
H        -1.04630872861579    1.55530848252259    2.40998735358620
Ir        0.42150000000000   -0.81650000000000    0.91330000000000
H         0.87260000000000   -2.23030000000000    1.54050000000000
B         0.47801431698139    0.46694714588221   -0.72406798917573
O         0.10027793082712   -0.00035012660544   -1.97288277043342
C        -0.02372688521346    1.10262518735617   -2.87644980654331
C         0.47722249630155    0.72255613692517   -4.26805648587882
H         1.48603958169935    0.32630996682478   -4.22945948122309
H         0.45353537936168    1.59835320188295   -4.91118566431192
H        -0.17269890910641   -0.04083117111737   -4.68756756303248
C        -1.52291539107888    1.43319874164403   -2.95891043415296
H        -1.71030068750874    2.23831227008678   -3.66231734884747
H        -2.05467077004725    0.54229637378669   -3.28574828749073
H        -1.89419667761317    1.70617121434195   -1.97316741560401
C         0.80020180474151    2.22043370483558   -2.16243017994405
O         0.76175099970213    1.80628796079523   -0.79174764988403
C         2.27577149948981    2.21758523710501   -2.58343494976208
H         2.68773333609164    1.22631730918692   -2.41395355471291
H         2.39042769260830    2.51364053469782   -3.62175017660515
H         2.81995560233237    2.91573958218791   -1.95204728433913
C         0.23672995522174    3.63237564319664   -2.30734616765634
H        -0.75577849563794    3.71145676507730   -1.87658327993777
H         0.88978543423314    4.32665035496932   -1.78502271644542
H         0.20118958752889    3.90455598766764   -3.35878641070782
B         1.57136848853379    0.62290291333177    1.88475583063158
O         2.92718256049217    0.58095245198440    2.11460672590560
C         3.36428517045561    1.88493573121470    2.52412909068486
C         4.53369233848909    1.77955600850521    3.49840073660392
H         4.29346881944185    1.13078630435028    4.33393412601984
H         5.39261137940736    1.36323326372794    2.97889658143658
H         4.79016303112673    2.76835506842226    3.86764899473872
C         3.80859441923050    2.60690169140878    1.24577811118111
H         4.19536621597970    3.59796227541510    1.46019292477863
H         4.58202522600152    2.01309660336296    0.76596300894996
H         2.96270800019716    2.65738952241624    0.56486748074598
C         2.05771629172286    2.49664154045364    3.11566959151305
O         1.04090534828653    1.77761829682910    2.40358111492671
C         1.89055518793822    3.99759665191901    2.90063238762208
H         1.83202860244818    4.23110213789951    1.84313932564048
H         0.96939704748931    4.32604394580767    3.37456555316159
H         2.72722430956118    4.52637227917414    3.34828247616726
C         1.87472833000163    2.16274641219319    4.60333741383576
H         1.99218483874656    1.09184596154815    4.75189633561816
H         2.58618084079715    2.70536667036888    5.21701554592884
H         0.86501412826003    2.43391737991405    4.90210287742482
B         2.27820000000001   -1.33090000000000    0.17410000000000
O         2.91280309042269   -2.53102593221252    0.42784989059270
C         4.25291766031229   -2.47573311703024   -0.08007330963293
C         5.13811894876473   -2.06060171582507    1.10207970560421