107
 energy: -152.610109202929 gnorm: 0.001032369869 xtb: 6.4.0 (f63f532)
N        -0.96509999999986   -2.11529999999987   -0.24090000000003
C        -2.24700000000001   -1.69839999999981   -0.36220000000001
C        -3.14040000000005   -2.36819999999981   -1.21199999999999
C        -2.70220000000005   -3.47560000000007   -1.93050000000012
C        -1.37780000000027   -3.89880000000013   -1.78759999999996
C        -0.54289999999980   -3.18670000000018   -0.93510000000029
H         0.49809999999998   -3.45629999999999   -0.78939999999997
H        -0.99570000000005   -4.76030000000002   -2.32770000000013
H        -4.16500000000008   -2.02890000000005   -1.31830000000004
C        -2.62130000000001   -0.50950000000000    0.44099999999988
N        -1.62600000000002    0.07330000000001    1.16020000000004
C        -1.89680000000012    1.15240000000000    1.91690000000003
C        -3.17229999999994    1.70330000000005    1.99649999999994
C        -4.20510000000003    1.11739999999995    1.26270000000003
C        -3.92609999999997    0.00250000000004    0.47820000000006
H        -4.71959999999992   -0.46420000000001   -0.09520000000003
H        -3.34629999999998    2.57509999999999    2.62070000000003
H        -1.04450000000001    1.57419999999998    2.43690000000001
Ir        0.42150000000000   -0.81649999999998    0.91330000000000
H         0.87260000000000   -2.23030000000000    1.54050000000000
B         0.50670000000002    0.41559999999991   -0.81540000000001
O         0.19500000000000   -0.04700000000001   -2.09150000000000
C         0.00650000000011    1.10040000000001   -2.95430000000003
C         0.49020000000020    0.74739999999941   -4.35779999999993
H         1.51610000000012    0.37379999999994   -4.33699999999999
H         0.44729999999999    1.62240000000004   -5.01670000000003
H        -0.14740000000000   -0.03389999999997   -4.78430000000001
C        -1.50119999999992    1.39559999999970   -2.96669999999989
H        -1.75369999999997    2.21459999999991   -3.64849999999992
H        -2.03200000000004    0.49449999999992   -3.28930000000001
H        -1.85169999999996    1.65210000000000   -1.96220000000000
C         0.84229999999994    2.20670000000014   -2.22039999999977
O         0.75200000000005    1.78259999999970   -0.83689999999983
C         2.32930000000013    2.18619999999968   -2.59900000000004
H         2.74129999999997    1.18500000000001   -2.45749999999998
H         2.48870000000000    2.51300000000007   -3.63180000000007
H         2.87200000000001    2.86269999999994   -1.93199999999997
C         0.28440000000018    3.62289999999977   -2.33659999999973
H        -0.72649999999991    3.69039999999999   -1.92910000000004
H         0.92129999999993    4.31479999999989   -1.77610000000005
H         0.26430000000001    3.94810000000007   -3.38320000000001
B         1.56299999999999    0.60959999999988    1.84840000000001
O         2.92780000000009    0.55230000000000    2.15019999999999
C         3.36330000000006    1.88660000000003    2.50260000000027
C         4.53140000000004    1.78589999999984    3.47739999999995
H         4.27909999999999    1.16090000000005    4.33690000000017
H         5.39390000000008    1.33790000000007    2.97340000000019
H         4.82390000000000    2.77869999999994    3.83820000000002
C         3.79700000000003    2.56850000000005    1.19670000000010
H         4.20020000000001    3.57089999999991    1.37679999999994
H         4.56740000000001    1.95560000000000    0.72109999999991
H         2.95240000000005    2.63260000000002    0.50540000000017
C         2.05039999999995    2.50090000000001    3.09319999999997
O         1.03750000000001    1.81619999999997    2.31910000000001
C         1.89100000000005    4.00449999999975    2.88650000000003
H         1.87289999999998    4.25439999999999    1.82409999999992
H         0.94940000000000    4.34260000000001    3.33169999999978
H         2.71080000000000    4.55150000000010    3.36629999999995
C         1.82469999999995    2.13199999999982    4.56520000000007
H         1.92609999999998    1.05329999999998    4.71320000000003
H         2.52610000000008    2.65280000000012    5.22539999999976
H         0.80630000000002    2.41580000000008    4.84900000000003
B         2.27820000000000   -1.33090000000001    0.17410000000002
O         2.89460000000001   -2.57740000000000    0.38450000000001
C         4.26929999999999   -2.48200000000009   -0.07209999999996
C         5.10899999999997   -2.05379999999991    1.14009999999993
H         4.76350000000003   -1.08740000000009    1.51750000000001
H         4.98050000000000   -2.79470000000001    1.93590000000001
H         6.17419999999999   -1.99290000000001    0.89300000000000
C         4.71950000000000   -3.84660000000001   -0.58470000000018
H         4.75280000000000   -4.56129999999996    0.24419999999976
H         5.72329999999998   -3.78369999999999   -1.02009999999995
H         4.03500000000002   -4.23600000000001   -1.34169999999996
C         4.16439999999998   -1.36219999999995   -1.16299999999996
O         3.08519999999995   -0.55030000000012   -0.65400000000002
C         5.40720000000005   -0.48869999999994   -1.31549999999987
H         6.27319999999999   -1.09009999999999   -1.61529999999999
H         5.23299999999997    0.26930000000003   -2.08590000000005
H         5.64269999999997    0.02650000000000   -0.38239999999999
C         3.71799999999997   -1.89829999999979   -2.53109999999996
H         2.82530000000006   -2.52160000000000   -2.42739999999999
H         3.46089999999997   -1.05250000000005   -3.17550000000005
H         4.50569999999994   -2.48290000000003   -3.01790000000004
H        -3.38500000000011   -4.00130000000003   -2.59310000000004
H        -5.21400000000000    1.52080000000000    1.29960000000001
C         0.23589999999994   -1.68139999999997    2.96030000000003
C        -0.98688503490920   -2.14638724846994    3.43751616383093
C         1.29302029045980   -1.59967913723628    3.87100443388838
C        -1.17286744204313   -2.45187465120175    4.78626286388162
H        -1.81954729279038   -2.30249859925964    2.76061151442686
C         1.11914081516666   -1.88087137451249    5.21630771381841
H         2.27520876266596   -1.32653713624332    3.50896528201932
C        -2.48545998133072   -3.02409006065257    5.25940878032970
C        -0.11674359180517   -2.30724007426619    5.68057942376755
H         1.95503033167455   -1.80342682193228    5.90070315722037
N        -2.68989622961749   -4.35604794033264    4.72426460969268
H        -3.32209811715805   -2.40056011669739    4.92956732711870
H        -2.49363032426920   -3.06815300369624    6.35503693230447
H        -0.25079761521576   -2.55690291726410    6.72620078859313
C        -1.78349979027637   -5.37155268340192    4.76847241277553
C        -3.81791292587964   -4.80562392646632    4.10987577608899
C        -2.33644576029954   -6.47771486650500    4.17650325983075
H        -0.81123087321435   -5.22982313688426    5.20599006026057
C        -3.63416736818769   -6.11817165414054    3.75857246296104
H        -4.67033032473150   -4.16310706071035    3.97344184398772
H        -1.86635954753827   -7.43840134860518    4.05516497893713
H        -4.34727711698957   -6.75119744238377    3.25910312316707
