107
 energy: -152.610462937284 gnorm: 0.074001515047 xtb: 6.4.0 (f63f532)
N        -0.96509999999986   -2.11529999999987   -0.24090000000003
C        -2.24700000000001   -1.69839999999981   -0.36220000000001
C        -3.14040000000005   -2.36819999999981   -1.21199999999999
C        -2.70220000000005   -3.47560000000007   -1.93050000000012
C        -1.37780000000027   -3.89880000000013   -1.78759999999996
C        -0.54289999999980   -3.18670000000018   -0.93510000000029
H         0.49809999999998   -3.45629999999999   -0.78939999999997
H        -0.99570000000005   -4.76030000000002   -2.32770000000013
H        -4.16500000000008   -2.02890000000005   -1.31830000000004
C        -2.62130000000001   -0.50950000000000    0.44099999999988
N        -1.62600000000002    0.07330000000001    1.16020000000004
C        -1.89680000000012    1.15240000000000    1.91690000000003
C        -3.17229999999994    1.70330000000005    1.99649999999994
C        -4.20510000000003    1.11739999999995    1.26270000000003
C        -3.92609999999997    0.00250000000004    0.47820000000006
H        -4.71959999999992   -0.46420000000001   -0.09520000000003
H        -3.34629999999998    2.57509999999999    2.62070000000003
H        -1.04450000000001    1.57419999999998    2.43690000000001
Ir        0.42150000000000   -0.81649999999998    0.91330000000000
H         0.87260000000000   -2.23030000000000    1.54050000000000
B         0.50670000000002    0.41559999999991   -0.81540000000001
O         0.19500000000000   -0.04700000000001   -2.09150000000000
C         0.00650000000011    1.10040000000001   -2.95430000000003
C         0.49020000000020    0.74739999999941   -4.35779999999993
H         1.51610000000012    0.37379999999994   -4.33699999999999
H         0.44729999999999    1.62240000000004   -5.01670000000003
H        -0.14740000000000   -0.03389999999997   -4.78430000000001
C        -1.50119999999992    1.39559999999970   -2.96669999999989
H        -1.75369999999997    2.21459999999991   -3.64849999999992
H        -2.03200000000004    0.49449999999992   -3.28930000000001
H        -1.85169999999996    1.65210000000000   -1.96220000000000
C         0.84229999999994    2.20670000000014   -2.22039999999977
O         0.75200000000005    1.78259999999970   -0.83689999999983
C         2.32930000000013    2.18619999999968   -2.59900000000004
H         2.74129999999997    1.18500000000001   -2.45749999999998
H         2.48870000000000    2.51300000000007   -3.63180000000007
H         2.87200000000001    2.86269999999994   -1.93199999999997
C         0.28440000000018    3.62289999999977   -2.33659999999973
H        -0.72649999999991    3.69039999999999   -1.92910000000004
H         0.92129999999993    4.31479999999989   -1.77610000000005
H         0.26430000000001    3.94810000000007   -3.38320000000001
B         1.56299999999999    0.60959999999988    1.84840000000001
O         2.92780000000009    0.55230000000000    2.15019999999999
C         3.36330000000006    1.88660000000003    2.50260000000027
C         4.53140000000004    1.78589999999984    3.47739999999995
H         4.27909999999999    1.16090000000005    4.33690000000017
H         5.39390000000008    1.33790000000007    2.97340000000019
H         4.82390000000000    2.77869999999994    3.83820000000002
C         3.79700000000003    2.56850000000005    1.19670000000010
H         4.20020000000001    3.57089999999991    1.37679999999994
H         4.56740000000001    1.95560000000000    0.72109999999991
H         2.95240000000005    2.63260000000002    0.50540000000017
C         2.05039999999995    2.50090000000001    3.09319999999997
O         1.03750000000001    1.81619999999997    2.31910000000001
C         1.89100000000005    4.00449999999975    2.88650000000003
H         1.87289999999998    4.25439999999999    1.82409999999992
H         0.94940000000000    4.34260000000001    3.33169999999978
H         2.71080000000000    4.55150000000010    3.36629999999995
C         1.82469999999995    2.13199999999982    4.56520000000007
H         1.92609999999998    1.05329999999998    4.71320000000003
H         2.52610000000008    2.65280000000012    5.22539999999976
H         0.80630000000002    2.41580000000008    4.84900000000003
B         2.27820000000000   -1.33090000000001    0.17410000000002
O         2.89460000000001   -2.57740000000000    0.38450000000001
C         4.26929999999999   -2.48200000000009   -0.07209999999996
C         5.10899999999997   -2.05379999999991    1.14009999999993
H         4.76350000000003   -1.08740000000009    1.51750000000001
H         4.98050000000000   -2.79470000000001    1.93590000000001
H         6.17419999999999   -1.99290000000001    0.89300000000000
C         4.71950000000000   -3.84660000000001   -0.58470000000018
H         4.75280000000000   -4.56129999999996    0.24419999999976
H         5.72329999999998   -3.78369999999999   -1.02009999999995
H         4.03500000000002   -4.23600000000001   -1.34169999999996
C         4.16439999999998   -1.36219999999995   -1.16299999999996
O         3.08519999999995   -0.55030000000012   -0.65400000000002
C         5.40720000000005   -0.48869999999994   -1.31549999999987
H         6.27319999999999   -1.09009999999999   -1.61529999999999
H         5.23299999999997    0.26930000000003   -2.08590000000005
H         5.64269999999997    0.02650000000000   -0.38239999999999
C         3.71799999999997   -1.89829999999979   -2.53109999999996
H         2.82530000000006   -2.52160000000000   -2.42739999999999
H         3.46089999999997   -1.05250000000005   -3.17550000000005
H         4.50569999999994   -2.48290000000003   -3.01790000000004
H        -3.38500000000011   -4.00130000000003   -2.59310000000004
H        -5.21400000000000    1.52080000000000    1.29960000000001
C         0.23589999999994   -1.68139999999997    2.96030000000003
C        -0.98688503490920   -2.14638724846994    3.43751616383093
C         1.29302029045980   -1.59967913723628    3.87100443388838
C        -1.17286744204313   -2.45187465120175    4.78626286388162
H        -1.81954729279038   -2.30249859925964    2.76061151442686
C         1.11914081516666   -1.88087137451249    5.21630771381841
H         2.27520876266596   -1.32653713624332    3.50896528201932
C        -2.48545998133072   -3.02409006065257    5.25940878032970
C        -0.11674359180517   -2.30724007426619    5.68057942376755
H         1.95503033167455   -1.80342682193228    5.90070315722037
N        -2.68989622961749   -4.35604794033264    4.72426460969268
H        -3.32209811715805   -2.40056011669739    4.92956732711870
H        -2.49363032426920   -3.06815300369624    6.35503693230447
H        -0.25079761521576   -2.55690291726410    6.72620078859313
C        -1.78349979027637   -5.37155268340192    4.76847241277553
C        -3.81791292587964   -4.80562392646632    4.10987577608899
C        -2.33644576029954   -6.47771486650500    4.17650325983075
H        -0.81123087321435   -5.22982313688426    5.20599006026057
C        -3.63416736818769   -6.11817165414054    3.75857246296104
H        -4.67033032473150   -4.16310706071035    3.97344184398772
H        -1.86635954753827   -7.43840134860518    4.05516497893713
H        -4.34727711698957   -6.75119744238377    3.25910312316707
107
 energy: -152.616902238981 gnorm: 0.045647092293 xtb: 6.4.0 (f63f532)
N        -0.96257867120981   -2.10120502412559   -0.24974281871422
C        -2.24088522030035   -1.69170970795168   -0.36239275770904
C        -3.13536101732204   -2.36267397453132   -1.20516339609274
C        -2.70475030814206   -3.46369266020027   -1.92121052554907
C        -1.38480614039851   -3.88249916036933   -1.78180870610483
C        -0.55488617591605   -3.16832895335127   -0.93957590689992
H         0.47886566385695   -3.44829025145946   -0.79014882287902
H        -1.00838598235953   -4.74246136847438   -2.31716630760059
H        -4.15587249427183   -2.02721644569371   -1.30951442977022
C        -2.61186926217655   -0.51536085245680    0.43818715511658
N        -1.61957824258511    0.06253722801409    1.15205604049045
C        -1.89723713365960    1.13629026767478    1.89607093854774
C        -3.16342248454293    1.68766569756378    1.98190370707487
C        -4.19529238799208    1.10362648469414    1.25545367315829
C        -3.91428594220344   -0.00353139433688    0.47600482279374
H        -4.70563599519615   -0.46623580724137   -0.09362948815694
H        -3.33811931765697    2.55157315978455    2.60780429994553
H        -1.05392858857860    1.55464047004131    2.42453561403131
Ir        0.42150000000000   -0.81649999999998    0.91330000000000
H         0.87260000000000   -2.23030000000000    1.54050000000000
B         0.48944542562586    0.42647402484799   -0.78800753128324
O         0.17514082295888   -0.03429301391621   -2.06037179879953
C         0.01059442328551    1.09632984898136   -2.94254175775735
C         0.48954280465737    0.74636952438488   -4.34752757541774
H         1.50850348715146    0.36961677017969   -4.32645580050371
H         0.44468791900801    1.62163625957260   -4.99632955712679
H        -0.14926623967773   -0.02960472414031   -4.76791111661787
C        -1.49351946122939    1.39889613149308   -2.96968376192540
H        -1.73171488894839    2.21156357506780   -3.65432488040948
H        -2.02350647365483    0.50166356476114   -3.28940520157603
H        -1.84038801749421    1.65408777237198   -1.96823716053298
C         0.83206441240902    2.20704426143497   -2.21239729406032
O         0.75538781583368    1.78214309079052   -0.83484378272035
C         2.31448919560673    2.19046641971735   -2.60023836674334
H         2.71860089758091    1.19134940274353   -2.44991508157201
H         2.46605844308256    2.51136600480352   -3.63019079764086
H         2.85692577521268    2.86541709386291   -1.93919314607593
C         0.28059654579446    3.62304374681311   -2.34039396955353
H        -0.72266461108810    3.69205744658128   -1.92804516924497
H         0.92024068572453    4.30686880967830   -1.78393907780434
H         0.26291699735332    3.93504000816128   -3.38476420380284
B         1.56440811671911    0.62318799080209    1.84624318149421
O         2.92461755463655    0.56962932792834    2.13021660769482
C         3.36332496722164    1.88918230991508    2.50753195718115
C         4.53257017478576    1.78940562426407    3.47891610996868
H         4.27971014018948    1.16081361479441    4.32867830134248
H         5.38779829571418    1.34516785644770    2.97137548507162
H         4.81568594641317    2.77925663735600    3.83585413111080
C         3.80002233607676    2.57647107808693    1.20971270904982
H         4.20164837538594    3.57192311990680    1.39395457427503
H         4.56373853951278    1.96425253538086    0.73301073020481
H         2.95178055617902    2.62855187362061    0.52845713157344
C         2.05301621543824    2.50631019772792    3.08829174314262
O         1.04005824751100    1.81201818673039    2.33392514091906
C         1.89438933010858    4.00844266688613    2.88861894310590
H         1.86885246605161    4.25209508696123    1.83034372188005
H         0.95688419933943    4.33721352181446    3.33530167685896
H         2.71503016815111    4.54444740853319    3.36481429137318
C         1.83226734295722    2.14179346887778    4.56055354298523
H         1.93315186635957    1.06606707989695    4.69830711861729
H         2.53358835644295    2.66328463941912    5.20956430739108
H         0.81789074482024    2.42053969137854    4.84493896010883
B         2.27820000000000   -1.33090000000001    0.17410000000002
O         2.90143416138436   -2.56146261566613    0.39150876216971
C         4.26547129137385   -2.48350716313435   -0.07765201323088
C         5.11002635345247   -2.05853853581140    1.12804806103922
H         4.75392619506075   -1.09816911240674    1.49857403363248
H         4.97832540887333   -2.79382219215719    1.92105554175943
H         6.16774452236063   -1.99864942470389    0.87603581204687
C         4.72006871593452   -3.84573841011992   -0.58737947928744
H         4.74959193804734   -4.55007609954960    0.24268211596696
H         5.71777657358521   -3.77436134949012   -1.01981542154399
H         4.03421632101594   -4.23335139161561   -1.33589070931384
C         4.16611411872446   -1.36067382575287   -1.15793730059859
O         3.07406741597006   -0.56387257522273   -0.66240265766362
C         5.40942195729142   -0.49247055309644   -1.31579262827932
H         6.26558749193074   -1.09835092322971   -1.61142421249176
H         5.23107981468708    0.25849003840869   -2.08426914887056
H         5.63715864316254    0.02226875852366   -0.38685370930353
C         3.72917533304825   -1.90011730263735   -2.52595847133104
H         2.83708404403359   -2.51550493938755   -2.41723194683081
H         3.47186759476594   -1.05866258056852   -3.16794453067678
H         4.51916721545595   -2.47734580968389   -3.00362649996280
H        -3.38396078080513   -3.98846565690620   -2.57932903170639
H        -5.19914013464828    1.50551196069181    1.29525909287130
C         0.23589999999994   -1.68139999999996    2.96030000000002
C        -0.98637411312810   -2.14638487839024    3.43645506445564
C         1.29112088660443   -1.59731536958429    3.87476430334605
C        -1.17381920889862   -2.45107982137137    4.78313820221524
H        -1.81716609296815   -2.30312260876532    2.75970344975756
C         1.11276985270895   -1.87742127456635    5.21709407236327
H         2.27189050179829   -1.32360992841274    3.51572907780270
C        -2.48750320520174   -3.02501795265030    5.25422320201650
C        -0.12207762012187   -2.30437836775279    5.67719607226874
H         1.94537429427643   -1.79855637923438    5.90305073847840
N        -2.69143520164263   -4.35551451871081    4.72148143158738
H        -3.32330886216522   -2.40228710713571    4.92365228846419
H        -2.49775156981401   -3.06752017119268    6.35008457881141
H        -0.25803006259009   -2.55239623088986    6.72118617662230
C        -1.78680497204931   -5.36892158779393    4.76807724642073
C        -3.81677422513709   -4.80508742987180    4.10824218559026
C        -2.33762366410719   -6.47483969586844    4.17767449780270
H        -0.81752828036998   -5.22693818031268    5.20559971807602
C        -3.63343764526417   -6.11641565287436    3.75858243314534
H        -4.66738846643933   -4.16441430317594    3.97077923876859
H        -1.86818742907539   -7.43337523547099    4.05812964475455
H        -4.34432199599196   -6.74869010473764    3.26020688133448
107
 energy: -152.618567531915 gnorm: 0.036826572921 xtb: 6.4.0 (f63f532)
N        -0.95641946923290   -2.09593799675845   -0.25524404392682
C        -2.23271253135725   -1.68775020116080   -0.36246197456058
C        -3.13238456350473   -2.35700613028303   -1.20029857844148
C        -2.70975557436041   -3.45472850587924   -1.91794067886150
C        -1.39016166673227   -3.87390612233546   -1.78253619723245
C        -0.56052203140086   -3.16057572305645   -0.94446056124524
H         0.47199516909806   -3.44436585461623   -0.80312101270296
H        -1.01936655417211   -4.73306768553480   -2.31671654001789
H        -4.15167794016382   -2.02263822493833   -1.29667547359970
C        -2.59950325622689   -0.52007080788783    0.43445307030728
N        -1.60986173193538    0.05192388918129    1.15069282842304
C        -1.89321816222952    1.12114647752605    1.88894886203455
C        -3.15419710671379    1.67554594554118    1.97491084988858
C        -4.18671503927119    1.09283633419697    1.24835032475965
C        -3.90202235857491   -0.00881041203324    0.47009582215618
H        -4.69062882950245   -0.47221787982081   -0.09837026202498
H        -3.32875690809370    2.53692363770189    2.59877967693044
H        -1.05503246460518    1.54392317274479    2.41887020876376
Ir        0.42150000000000   -0.81649999999998    0.91330000000000
H         0.87260000000000   -2.23030000000000    1.54050000000000
B         0.49151692121290    0.43847802661440   -0.76427381324439
O         0.15424798535610   -0.02390851059008   -2.02885967987198
C         0.00526542190131    1.09347653584629   -2.92184580367376
C         0.48930068329598    0.73718227924840   -4.32389564042159
H         1.50448923604174    0.35653405208924   -4.30365287561262
H         0.44484681567205    1.61530908212864   -4.96331473851054
H        -0.15366769605693   -0.03268546833258   -4.74260865692878
C        -1.49704689068015    1.40579226424982   -2.96901895207970
H        -1.71641323161555    2.21434139145168   -3.65992396599259
H        -2.02642109088591    0.51084842760753   -3.28939055988100
H        -1.84682377173390    1.66504482354312   -1.97191618721857
C         0.82391518754097    2.20715856956553   -2.19969530387725
O         0.75849334890338    1.78810290538639   -0.82657081713078
C         2.30378340494144    2.19507002391752   -2.59794680591104
H         2.70494081367267    1.19758100268144   -2.44013155471510
H         2.44200453468477    2.50778556938419   -3.62912314398812
H         2.84647110425723    2.87502396212727   -1.94586155201562
C         0.27005613131636    3.62166491635674   -2.33824572404640
H        -0.72907089339313    3.69689790595657   -1.92245911691906
H         0.91492511565535    4.30458504386416   -1.79180804237698
H         0.25293903478704    3.91628050753077   -3.38423972135810
B         1.56476025609456    0.62987567609551    1.85542583155869
O         2.92312800207001    0.58318903533974    2.11376199078954
C         3.36207641299888    1.89257361869638    2.50675776020146
C         4.52926152312294    1.79006665795037    3.48123691471289
H         4.27875628699509    1.15645972552571    4.32501244349036
H         5.38223552279808    1.35295684230135    2.96945949361808
H         4.80297979832672    2.77901234567293    3.83752600981803
C         3.80442049389882    2.59265295923678    1.21792486993252
H         4.20312786815198    3.58394237087817    1.41054848539446
H         4.56724295966879    1.98296985637371    0.74118495397654
H         2.95509288019279    2.63963772723802    0.54075809400602
C         2.05425501400576    2.50868682924128    3.08778386419895
O         1.04227836163522    1.80761581850241    2.34752531962687
C         1.89745937161486    4.01079724528226    2.88632761410287
H         1.86387925875815    4.25312752046427    1.83015410698558
H         0.96512284091018    4.33589982011173    3.33965828181601
H         2.72189153857221    4.53791210579190    3.35785461365533
C         1.84344630322353    2.15283455751916    4.56439237711615
H         1.94563096686612    1.07867764922843    4.69709671617984
H         2.54790474594535    2.67781561412845    5.20162835805783
H         0.83141677570997    2.42967303352949    4.85004155770893
B         2.27819999999999   -1.33090000000002    0.17410000000002
O         2.90395603952750   -2.54922747626986    0.40073303038878
C         4.25835424370398   -2.48180711754340   -0.07810432196648
C         5.11424371941235   -2.06022841906555    1.12043770476383
H         4.75356003448974   -1.10242571424610    1.48745613043222
H         4.98312652525244   -2.79376629332246    1.91157263260911
H         6.16630710730378   -2.00174618089969    0.85940290370312
C         4.71151553733951   -3.84398430106815   -0.59040917106806
H         4.74355778452488   -4.54170558229388    0.24134010556629
H         5.70507437281042   -3.76381122354710   -1.02213600091009
H         4.02529396073673   -4.23340981833521   -1.33415740384114
C         4.16110363851136   -1.36131695230477   -1.15689561061914
O         3.06184741613976   -0.57366556222441   -0.67168605485689
C         5.40590051189707   -0.49479772445367   -1.31087554743355
H         6.25436569022076   -1.10814864114288   -1.60063725465594
H         5.22910933565140    0.24916314099085   -2.08260230109800
H         5.63029549267062    0.02254745582019   -0.38527321553276
C         3.73901573765749   -1.90492202752958   -2.52854116397947
H         2.84794952584635   -2.51759398362426   -2.41887722719208
H         3.48544094237086   -1.06549871104131   -3.17125357229593
H         4.53528595714233   -2.47799320936177   -2.99313603768743
H        -3.39049142596339   -3.97920524177457   -2.57025475895864
H        -5.18875536733286    1.49181718967543    1.29036949331495
C         0.23589999999993   -1.68139999999995    2.96030000000001
C        -0.98674152318023   -2.14723964249161    3.43301998143697
C         1.28794155799479   -1.59123109427131    3.87929929961133
C        -1.17829913575995   -2.44874469369091    4.77911925530285
H        -1.81456736257812   -2.30672459177967    2.75415905703548
C         1.10381835462303   -1.86906303319894    5.22007372527917
H         2.26800814609011   -1.31531427555998    3.52299103187695
C        -2.49369160586669   -3.02328202704668    5.24690092156591
C        -0.13145753655378   -2.29829594427646    5.67562979956983
H         1.93253186620431   -1.78673816077140    5.90932119042211
N        -2.69512805413747   -4.35317999724832    4.71687235821228
H        -3.32815502881732   -2.40104830171152    4.91328707211046
H        -2.50662234345357   -3.06299927395230    6.34308237739798
H        -0.27058647329277   -2.54454040704067    6.71885913296236
C        -1.79081937583839   -5.36462140401443    4.76770970580628
C        -3.81772831005186   -4.80380226733783    4.10309725714352
C        -2.33919711577310   -6.47222406726484    4.17909829607592
H        -0.82366869726681   -5.22145804173482    5.20688893605546
C        -3.63383544736721   -6.11554324576798    3.75678138106859
H        -4.66778693170527   -4.16460579836335    3.96286843372675
H        -1.86944776660076   -7.42980897362955    4.06295975008328
H        -4.34280183663225   -6.74863498716380    3.25911137519577
107
 energy: -152.619186828028 gnorm: 0.036030623772 xtb: 6.4.0 (f63f532)
N        -0.94801973511002   -2.09416700202490   -0.26491777723676
C        -2.22543320521068   -1.68652795439469   -0.36512754212105
C        -3.13086108717484   -2.35598282711216   -1.19784363976658
C        -2.71408839582863   -3.45342597649733   -1.91784774175850
C        -1.39258068358898   -3.87270358003985   -1.78950326324453
C        -0.55835867934369   -3.15834722281421   -0.95661277016588
H         0.47418366702550   -3.44613420774678   -0.82107661585737
H        -1.02613010616653   -4.73235774085042   -2.32475998914462
H        -4.15032915584838   -2.02047738764311   -1.28696466845300
C        -2.58978093315595   -0.52258473338527    0.43209328734623
N        -1.60051314999461    0.04832923660320    1.15023382093867
C        -1.88664002094825    1.11684564321320    1.88731267937355
C        -3.14721224957927    1.67118218376824    1.97333010081785
C        -4.18048328236894    1.08789757100486    1.24558960029741
C        -3.89324259247916   -0.01173314499811    0.46700593406036
H        -4.67938890708325   -0.47523659686811   -0.10444664173877
H        -3.32251465273008    2.53120853487565    2.59764157664274
H        -1.05180505807834    1.54009035390297    2.42268627515166
Ir        0.42150000000000   -0.81649999999998    0.91330000000000
H         0.87260000000000   -2.23030000000000    1.54050000000000
B         0.47776852087286    0.45367086229991   -0.74388902917532
O         0.13135171734088   -0.01472477037882   -2.00370628442758
C        -0.00458175035720    1.09362368436457   -2.90401899688614
C         0.48673304937542    0.72598127405433   -4.30146077604185
H         1.49928037479997    0.33921667315485   -4.27458880506717
H         0.44977131189477    1.60349009386073   -4.94149452009701
H        -0.15948300070267   -0.04114092001748   -4.71967892754610
C        -1.50560231929767    1.41461254303114   -2.96787823388282
H        -1.70998268878878    2.22068338025760   -3.66560937788253
H        -2.03603860811216    0.52101927936329   -3.28946817376699
H        -1.86361777073278    1.68099686162368   -1.97576752391349
C         0.81522268014145    2.20997830949183   -2.18696701279985
O         0.75827357692722    1.79843273026832   -0.81463385997671
C         2.29355936771815    2.19905591286532   -2.59444460403011
H         2.69683133873276    1.20362366774125   -2.42975734330379
H         2.42254517798407    2.50309362436770   -3.62898465737596
H         2.83756854138005    2.88657794577186   -1.95171591770975
C         0.26007938212513    3.62413179344760   -2.33414011762195
H        -0.73681967748412    3.70372857120452   -1.91431327767080
H         0.90874771518580    4.31165007495967   -1.79823422228846
H         0.23837336126691    3.90556269808368   -3.38339794042270
B         1.56624233215348    0.63842869984707    1.85152190238464
O         2.92391726503880    0.59382222599315    2.09755652733742
C         3.36230094094819    1.89702653034899    2.50431119599932
C         4.52804301115167    1.78901034273983    3.48158898650449
H         4.27797773029212    1.14860818403920    4.32014398105893
H         5.38307984264859    1.35887757836581    2.96766522330263
H         4.79584154252626    2.77688916989567    3.84436447259265
C         3.80973186454346    2.60957146989768    1.22295030957015
H         4.20479388351576    3.59951988755955    1.42663881879026
H         4.57610400433232    2.00527029868329    0.74521153649498
H         2.96246080687334    2.65926289270834    0.54383628396778
C         2.05481214574323    2.51088224663697    3.08878338833104
O         1.04116432339492    1.80496802096413    2.35899274572849
C         1.89670973234610    4.01348643824229    2.88516392683514
H         1.85486318743873    4.25460130423158    1.82909398740283
H         0.96888706462029    4.33993264585001    3.34636597041256
H         2.72662454260597    4.53787388027941    3.34934693288416
C         1.85462278585625    2.16250419814413    4.56979631113976
H         1.95897424624983    1.08921793806300    4.70538585404418
H         2.56341052296821    2.69212543882421    5.19761036120301
H         0.84434538883175    2.43984174746369    4.86017604118539
B         2.27819999999999   -1.33090000000003    0.17410000000002
O         2.90581229875944   -2.54269235025892    0.41077952520091
C         4.25372447104345   -2.48114286986572   -0.07754670607603
C         5.11991310124337   -2.06072407739611    1.11515988823912
H         4.76106993590132   -1.10283406429109    1.48321298214938
H         4.99252617592394   -2.79430789247920    1.90649330030236
H         6.16927642173708   -2.00358625825704    0.84559114378424
C         4.70255615339647   -3.84535825944000   -0.59106558072876
H         4.73849517709312   -4.54119348878056    0.24178895288286
H         5.69364044225405   -3.76280925633168   -1.02695219284934
H         4.01307240018236   -4.23550001886794   -1.33119295999167
C         4.15680119408193   -1.36256079962955   -1.15832885243904
O         3.05227407984602   -0.57942699421817   -0.68230060809854
C         5.40174796608641   -0.49437982732768   -1.30771053406185
H         6.24973870043640   -1.11152827228461   -1.58967402509357
H         5.22912105688213    0.24544800369298   -2.08405564602868
H         5.62116189593492    0.02662092633437   -0.38320105912141
C         3.74745145331356   -1.91026791533762   -2.53324928201271
H         2.85691398246550   -2.52406262998434   -2.42886014393772
H         3.49907782108154   -1.07237414058430   -3.17974714893240
H         4.55010951614352   -2.48219934670990   -2.98705600222719
H        -3.39846790786252   -3.97708099380858   -2.56657402683630
H        -5.18271318379955    1.48535916530881    1.28763119078046
C         0.23589999999992   -1.68139999999994    2.96029999999999
C        -0.98776189671642   -2.14811115394148    3.42868112545056
C         1.28392409137570   -1.58449842046533    3.88374151326007
C        -1.18488057026329   -2.44496545455799    4.77512184726209
H        -1.81194169855022   -2.31218960300623    2.74644404406380
C         1.09388455625090   -1.85838736386161    5.22430077261701
H         2.26427395884587   -1.30624958520210    3.53030377098378
C        -2.50200493292394   -3.01942130171085    5.23895321847095
C        -0.14262036804597   -2.28956602320268    5.67564320598619
H         1.91867214882888   -1.77120264380504    5.91766573013006
N        -2.70034140465389   -4.35001107854413    4.71150328177442
H        -3.33516432429326   -2.39791666972912    4.90078354001286
H        -2.51873858333337   -3.05607201391051    6.33531918813182
H        -0.28564735732386   -2.53311570404104    6.71894331064698
C        -1.79541345694531   -5.36021065752284    4.76772622639645
C        -3.82063900116641   -4.80281879484106    4.09593593532562
C        -2.34122913857432   -6.47011888376644    4.18061897281228
H        -0.82961228967762   -5.21525227579185    5.20931408973391
C        -3.63498250348880   -6.11557220850797    3.75364053555024
H        -4.67089753800694   -4.16475936049305    3.95153276028668
H        -1.87038153683232   -7.42758332343392    4.06849679330044
H        -4.34209881139090   -6.75048652154395    3.25580584455708
107
 energy: -152.619907981119 gnorm: 0.036528726329 xtb: 6.4.0 (f63f532)
N        -0.93698946190636   -2.09686560927461   -0.27652449058736
C        -2.21609371346708   -1.68823531592018   -0.36824054695937
C        -3.12834505387010   -2.35747985637146   -1.19563150032697
C        -2.71868219685547   -3.45429061854863   -1.92009317359952
C        -1.39439663474888   -3.87311174115620   -1.80300877876775
C        -0.55343674759092   -3.15920879794633   -0.97509832585496
H         0.48089722463465   -3.44871684501260   -0.85168993703635
H        -1.03312633114754   -4.73247841762037   -2.34254644351685
H        -4.14867180501611   -2.02080571498743   -1.27413064636455
C        -2.57718975678823   -0.52672161029608    0.43030229243280
N        -1.58841867834457    0.04082771870043    1.15470607681550
C        -1.87686300349123    1.11006435218103    1.89168896352186
C        -3.13682106606460    1.66640164565095    1.97411890006107
C        -4.17028908573680    1.08484461788124    1.24197987166607