107
 energy: -152.623697964384 gnorm: 0.000307130813 xtb: 6.4.0 (f63f532)
N        -0.91087413537047   -2.09462340935219   -0.32606948520651
C        -2.18585756863237   -1.68261573817569   -0.44893879235521
C        -3.09187975025545   -2.37973467870513   -1.25954153518493
C        -2.67203589660729   -3.48855217518292   -1.96058681135780
C        -1.34383771049112   -3.89029194738651   -1.83913040104220
C        -0.51535095719984   -3.16396432574480   -1.00952849407982
H         0.51948658947147   -3.44519013724578   -0.87376448450177
H        -0.97074416221826   -4.75038500471811   -2.37103223125314
H        -4.11902822505055   -2.06249737514156   -1.33399370248579
C        -2.55249086794066   -0.48838597926841    0.30121253982641
N        -1.61611488464244    0.01527313668394    1.13419058403575
C        -1.91754360559411    1.09704030121664    1.85013320873020
C        -3.13081383793659    1.74933922870715    1.77355866809635
C        -4.09593821828063    1.25918786743343    0.89692835755223
C        -3.79927178811770    0.13346026452753    0.15969079653046
H        -4.52951364769029   -0.25674936503959   -0.52984016072677
H        -3.32081237300258    2.61936856315350    2.38116927751892
H        -1.13296756621248    1.44906095719470    2.50204025803058
Ir        0.42149999999994   -0.81649999999995    0.91329999999998
H         0.87259999999993   -2.23030000000010    1.54050000000010
B         0.35530492678940    0.60080834839585   -0.61766878005477
O        -0.32993459441967    0.29028884860133   -1.77938452430821
C        -0.45159597608289    1.45287355950491   -2.60469161871174
C        -0.25151217271225    1.06809303460926   -4.06855151522657
H         0.66531233979435    0.50163186472910   -4.19397246094433
H        -0.21954925962614    1.95977830106039   -4.68941283396694
H        -1.08241644429639    0.44507335652983   -4.39134381716377
C        -1.87608949573715    1.99398679568902   -2.41386518660553
H        -2.05774576233986    2.85427942205271   -3.05119498950733
H        -2.58437100915290    1.20782754772725   -2.66830712351566
H        -2.03648046919910    2.26741717363364   -1.37281739738171
C         0.63982907994027    2.40453495884184   -2.01432073106228
O         0.80049218385118    1.90246072560364   -0.68094495605249
C         1.99648983499936    2.24439395658166   -2.71134972879238
H         2.29757257237026    1.20038904671801   -2.66764583117657
H         1.95839388585799    2.58953226169110   -3.74058178731324
H         2.73748007288434    2.82699889998617   -2.16897337039613
C         0.25617808496944    3.88248002653483   -1.97460769298852
H        -0.59991919961354    4.05015182638622   -1.32846641707474
H         1.09282597032712    4.45730818405069   -1.58469214925742
H         0.02758111531818    4.23418086074162   -2.97750060037834
B         1.54662563938997    0.68541702621658    1.82527713504230
O         2.90835133697780    0.87225258167003    1.78818153585304
C         3.24781764169215    2.16035199143775    2.32028209259308
C         4.52321625058813    2.05743524973487    3.15570540732810
H         4.43674287547023    1.28099551068811    3.90829835279637
H         5.35611988108895    1.80526376278272    2.50443728965309
H         4.73125436871650    3.00960686727529    3.63621267061652
C         3.49790635563542    3.07701315271041    1.11660805173662
H         3.74365952985184    4.08813561824530    1.42735101032069
H         4.32689205413389    2.67271275766053    0.53987511606040
H         2.61592643677810    3.07356966041174    0.48151724349697
C         1.96173513062870    2.55064516847227    3.12648725742953
O         0.96217980906620    1.69104948985803    2.56434390191933
C         1.52045584241342    4.00477445124680    2.96677671336480
H         1.25620202695313    4.21160358926170    1.93505479057634
H         0.64375805218244    4.18037800810820    3.58544802497237
H         2.31327852373402    4.67629394518583    3.28482387810888
C         2.05970649296980    2.21301044673134    4.61975908950750
H         2.32290084512189    1.16689553556750    4.74731286579592
H         2.78932200733801    2.84490529748070    5.11691848861243
H         1.08535125891866    2.36960765306631    5.07640046612715
B         2.27819999999981   -1.33089999999996    0.17409999999885
O         3.17460539840331   -2.19501388168871    0.76547217607990
C         4.42778529261625   -2.16585672428155    0.07082945648966
C         5.37216493679440   -1.29604851083264    0.90756014786351
H         4.90687084092484   -0.32788085010166    1.06825991439428
H         5.50582542131375   -1.76795983924170    1.87760316390701
H         6.34113159018327   -1.18524390388235    0.43088070866740
C         4.99342897624997   -3.58322028854457   -0.02056055458400
H         5.19865269503390   -3.94293462423421    0.98428598663337
H         5.91847184991824   -3.58004875211368   -0.59037666781285
H         4.28559674204020   -4.26370582903349   -0.48183008590409
C         4.04815105383525   -1.51168000668340   -1.30488858206774
O         2.78508580691317   -0.88884711977216   -1.02659814564399
C         5.02928095863263   -0.45125750098915   -1.80238171668107
H         6.02107979377273   -0.87894172529267   -1.92042784905820
H         4.69149644725300   -0.07817800250226   -2.76605668859195
H         5.06691359846987    0.38312479640246   -1.11061362880479
C         3.81271651112243   -2.53841112539328   -2.42118923812468
H         3.08908255196222   -3.28333618583627   -2.10186757914135
H         3.40276753621955   -2.02308019496975   -3.28664625706983
H         4.74072833859155   -3.02489440092102   -2.70571965989422
H        -3.35934157957993   -4.03408891845130   -2.58925109964522
H        -5.05301743769285    1.74818014185990    0.79455619372286
C         0.23589999999786   -1.68140000000015    2.96029999999919
C        -1.02631353589594   -2.10845257590313    3.35427012335059
C         1.20102239475227   -1.47943751054946    3.94611522787949
C        -1.35257674813085   -2.25417653889363    4.69915287990582
H        -1.78110215138787   -2.35103330614934    2.61766873903482
C         0.88195934474988   -1.61145782649672    5.28544622467425
H         2.20653223304344   -1.22443183442199    3.64856038415457
C        -2.73164520030781   -2.73620293409467    5.08695044763353
C        -0.39531562400598   -1.99156246199757    5.66696984440870
H         1.63395237280845   -1.43622617600164    6.04198661682912
N        -3.05295841882384   -3.98512419377063    4.44016331676147
H        -3.48604190282462   -2.00100309440694    4.79090893510967
H        -2.78382384874644   -2.86373139896114    6.17479280074518
H        -0.63874212960209   -2.10257428939684    6.71421052877172
C        -2.30217948712799   -5.11398524901887    4.51326349455585
C        -4.13097071496786   -4.22899470969649    3.65362607902512
C        -2.90603291379901   -6.09082677785383    3.76783940492907
H        -1.39234351553099   -5.13597306881372    5.08046121160238
C        -4.07411311709783   -5.52688434705228    3.21976368119169
H        -4.86452931408508   -3.46902354630889    3.46330847768060
H        -2.55504437556303   -7.09556861865571    3.62988809701031
H        -4.78554045305558   -6.01878431521374    2.58431252700750
