106
 energy: -152.406875593464 gnorm: 0.002451704557 xtb: 6.4.1 (1a32961)
N        -0.96510000000000   -2.11529999999999   -0.24090000000000
C        -2.24700000000001   -1.69839999999996   -0.36220000000000
C        -3.14040000000001   -2.36820000000001   -1.21200000000001
C        -2.70220000000002   -3.47560000000002   -1.93049999999997
C        -1.37779999999994   -3.89880000000004   -1.78760000000003
C        -0.54290000000001   -3.18669999999999   -0.93509999999999
H         0.49809999999999   -3.45629999999999   -0.78940000000000
H        -0.99570000000000   -4.76030000000000   -2.32769999999996
H        -4.16500000000000   -2.02890000000000   -1.31830000000000
C        -2.62130000000000   -0.50949999999998    0.44100000000000
N        -1.62599999999999    0.07329999999999    1.16020000000000
C        -1.89679999999998    1.15239999999998    1.91689999999999
C        -3.17230000000000    1.70329999999998    1.99650000000001
C        -4.20510000000001    1.11740000000001    1.26269999999999
C        -3.92610000000001    0.00250000000001    0.47820000000001
H        -4.71960000000000   -0.46420000000000   -0.09520000000001
H        -3.34630000000000    2.57510000000002    2.62069999999999
H        -1.04450000000000    1.57420000000000    2.43690000000000
Ir        0.42150000000000   -0.81650000000000    0.91330000000000
H         0.87260000000000   -2.23030000000000    1.54050000000000
B         0.50670000000000    0.41560000000003   -0.81540000000001
O         0.19499999999999   -0.04700000000001   -2.09150000000000
C         0.00649999999996    1.10040000000005   -2.95429999999999
C         0.49019999999997    0.74740000000001   -4.35779999999998
H         1.51610000000000    0.37380000000000   -4.33700000000000
H         0.44729999999999    1.62240000000001   -5.01670000000002
H        -0.14740000000003   -0.03389999999999   -4.78430000000001
C        -1.50120000000005    1.39559999999997   -2.96670000000003
H        -1.75370000000000    2.21460000000001   -3.64850000000001
H        -2.03200000000001    0.49449999999997   -3.28929999999999
H        -1.85169999999999    1.65210000000000   -1.96220000000000
C         0.84230000000000    2.20669999999995   -2.22040000000000
O         0.75200000000000    1.78260000000000   -0.83689999999999
C         2.32929999999995    2.18620000000002   -2.59899999999997
H         2.74129999999999    1.18500000000002   -2.45750000000001
H         2.48870000000000    2.51299999999999   -3.63179999999998
H         2.87199999999999    2.86270000000001   -1.93199999999999
C         0.28440000000002    3.62290000000001   -2.33659999999996
H        -0.72650000000000    3.69040000000000   -1.92910000000000
H         0.92129999999998    4.31480000000000   -1.77610000000002
H         0.26430000000000    3.94810000000000   -3.38320000000000
B         1.56300000000000    0.60959999999998    1.84840000000000
O         2.92779999999998    0.55230000000002    2.15020000000001
C         3.36330000000001    1.88659999999998    2.50260000000001
C         4.53139999999998    1.78589999999998    3.47740000000005
H         4.27910000000000    1.16090000000000    4.33690000000001
H         5.39390000000003    1.33790000000000    2.97340000000000
H         4.82390000000000    2.77869999999998    3.83819999999999
C         3.79700000000001    2.56850000000001    1.19669999999995
H         4.20020000000000    3.57089999999999    1.37680000000001
H         4.56740000000002    1.95560000000000    0.72109999999998
H         2.95240000000000    2.63260000000000    0.50539999999998
C         2.05040000000002    2.50090000000003    3.09320000000003
O         1.03749999999998    1.81620000000003    2.31910000000001
C         1.89099999999999    4.00450000000001    2.88649999999995
H         1.87290000000000    4.25440000000001    1.82410000000006
H         0.94940000000000    4.34260000000000    3.33169999999997
H         2.71080000000000    4.55150000000001    3.36630000000000
C         1.82469999999996    2.13200000000003    4.56519999999996
H         1.92610000000001    1.05329999999995    4.71320000000000
H         2.52610000000002    2.65280000000000    5.22539999999998
H         0.80629999999999    2.41580000000000    4.84900000000001
B         2.27820000000000   -1.33090000000000    0.17410000000000
O         2.89460000000000   -2.57740000000000    0.38450000000000
C         4.26929999999999   -2.48200000000000   -0.07210000000001
C         5.10899999999999   -2.05379999999999    1.14010000000000
H         4.76350000000000   -1.08740000000000    1.51750000000000
H         4.98050000000000   -2.79470000000000    1.93590000000000
H         6.17420000000000   -1.99290000000000    0.89299999999999
C         4.71950000000001   -3.84659999999999   -0.58470000000000
H         4.75280000000000   -4.56130000000001    0.24420000000000
H         5.72330000000000   -3.78370000000000   -1.02010000000001
H         4.03499999999999   -4.23600000000000   -1.34170000000000
C         4.16440000000002   -1.36220000000000   -1.16300000000002
O         3.08519999999999   -0.55030000000001   -0.65400000000000
C         5.40719999999998   -0.48870000000000   -1.31549999999996
H         6.27320000000002   -1.09010000000000   -1.61530000000000
H         5.23300000000000    0.26929999999999   -2.08589999999999
H         5.64269999999999    0.02650000000002   -0.38240000000004
C         3.71800000000000   -1.89829999999997   -2.53110000000000
H         2.82529999999999   -2.52160000000000   -2.42740000000000
H         3.46090000000000   -1.05250000000002   -3.17550000000002
H         4.50570000000001   -2.48290000000001   -3.01790000000001
H        -3.38500000000000   -4.00130000000001   -2.59310000000003
H        -5.21400000000000    1.52080000000000    1.29960000000000
C         0.23590000000005   -1.68140000000001    2.96030000000000
C        -1.04256898258300   -1.99437275121960    3.42651212094260
C         1.29320552441003   -1.85697029454726    3.87444229926238
C        -1.28658773698995   -2.33446954175589    4.76173200074868
H        -1.87752818218268   -2.05668877751219    2.73837162011070
C         2.71810200335165   -2.05924853195709    3.46480993637956
C         1.03124147697976   -1.99738789448205    5.23477713056064
C        -2.53470626436228   -2.94739357068825    5.21532494240640
C        -0.25219660326223   -2.23008688170430    5.69033487752359
H         3.15020297502610   -1.14699183932814    3.06289895125228
H         2.76022624193923   -2.80765582246401    2.67530468687295
H         3.31506501261871   -2.39958936301806    4.31114646970492
H         1.85687517998292   -2.02289262374141    5.93696771641140
C        -3.80896367103588   -2.64163751624318    4.82283334465492
C        -2.52802633600391   -4.02930705401553    6.14950521127140
H        -0.43586657043546   -2.40354097419375    6.74287887356987
S        -4.98827404583234   -3.63290240114230    5.58146209314918
H        -4.12157916146782   -1.87022898189351    4.14288385621316
C        -3.77361426423937   -4.49433743634775    6.43311712347754
H        -1.62526327658679   -4.45056809083726    6.56213445086226
H        -4.04884254386747   -5.29890233630472    7.09139414893216
