      -----------------------------------------------------------      
     |                   =====================                   |     
     |                           x T B                           |     
     |                   =====================                   |     
     |                         S. Grimme                         |     
     |          Mulliken Center for Theoretical Chemistry        |     
     |                    University of Bonn                     |     
      -----------------------------------------------------------      

   * xtb version 6.4.1 (1a32961) compiled by 'knkr256@seskscpg007.prim.scp' on 2021-10-19

   xtb is free software: you can redistribute it and/or modify it under
   the terms of the GNU Lesser General Public License as published by
   the Free Software Foundation, either version 3 of the License, or
   (at your option) any later version.
   
   xtb is distributed in the hope that it will be useful,
   but WITHOUT ANY WARRANTY; without even the implied warranty of
   MERCHANTABILITY or FITNESS FOR A PARTICULAR PURPOSE.  See the
   GNU Lesser General Public License for more details.
   
   Cite this work as:
   * C. Bannwarth, E. Caldeweyher, S. Ehlert, A. Hansen, P. Pracht,
     J. Seibert, S. Spicher, S. Grimme, WIREs Comput. Mol. Sci., 2020, 11,
     e01493. DOI: 10.1002/wcms.1493
   
   for GFN2-xTB:
   * C. Bannwarth, S. Ehlert and S. Grimme., J. Chem. Theory Comput., 2019,
     15, 1652-1671. DOI: 10.1021/acs.jctc.8b01176
   for GFN1-xTB:
   * S. Grimme, C. Bannwarth, P. Shushkov, J. Chem. Theory Comput., 2017,
     13, 1989-2009. DOI: 10.1021/acs.jctc.7b00118
   for GFN0-xTB:
   * P. Pracht, E. Caldeweyher, S. Ehlert, S. Grimme, ChemRxiv, 2019, preprint.
     DOI: 10.26434/chemrxiv.8326202.v1
   for GFN-FF:
   * S. Spicher and S. Grimme, Angew. Chem. Int. Ed., 2020, 59, 15665-15673.
     DOI: 10.1002/anie.202004239
   
   for ALPB and GBSA implicit solvation:
   * S. Ehlert, M. Stahn, S. Spicher, S. Grimme, J. Chem. Theory Comput.,
     2021, 17, 4250-4261. DOI: 10.1021/acs.jctc.1c00471
   
   for DFT-D4:
   * E. Caldeweyher, C. Bannwarth and S. Grimme, J. Chem. Phys., 2017,
     147, 034112. DOI: 10.1063/1.4993215
   * E. Caldeweyher, S. Ehlert, A. Hansen, H. Neugebauer, S. Spicher,
     C. Bannwarth and S. Grimme, J. Chem. Phys., 2019, 150, 154122.
     DOI: 10.1063/1.5090222
   * E. Caldeweyher, J.-M. Mewes, S. Ehlert and S. Grimme, Phys. Chem. Chem. Phys.
     2020, 22, 8499-8512. DOI: 10.1039/D0CP00502A
   
   for sTDA-xTB:
   * S. Grimme and C. Bannwarth, J. Chem. Phys., 2016, 145, 054103.
     DOI: 10.1063/1.4959605
   
   in the mass-spec context:
   * V. Asgeirsson, C. Bauer and S. Grimme, Chem. Sci., 2017, 8, 4879.
     DOI: 10.1039/c7sc00601b
   * J. Koopman and S. Grimme, ACS Omega 2019, 4, 12, 15120-15133.
     DOI: 10.1021/acsomega.9b02011
   
   for metadynamics refer to:
   * S. Grimme, J. Chem. Theory Comput., 2019, 155, 2847-2862
     DOI: 10.1021/acs.jctc.9b00143
   
   for SPH calculations refer to:
   * S. Spicher and S. Grimme, J. Chem. Theory Comput., 2021, 17, 1701-1714
     DOI: 10.1021/acs.jctc.0c01306
   
   with help from (in alphabetical order)
   P. Atkinson, C. Bannwarth, F. Bohle, G. Brandenburg, E. Caldeweyher
   M. Checinski, S. Dohm, S. Ehlert, S. Ehrlich, I. Gerasimov, J. Koopman
   C. Lavigne, S. Lehtola, F. März, M. Müller, F. Musil, H. Neugebauer
   J. Pisarek, C. Plett, P. Pracht, J. Seibert, P. Shushkov, S. Spicher
   M. Stahn, M. Steiner, T. Strunk, J. Stückrath, T. Rose, and J. Unsleber
   
 * started run on 2022/01/14 at 13:49:55.767     

           -------------------------------------------------
          |                Calculation Setup                |
           -------------------------------------------------

          program call               : xtb xtbopt.xyz --sp --alpb thf -P 6
          hostname                   : seskscpg007.prim.scp
          coordinate file            : xtbopt.xyz
          omp threads                :                     6
          number of atoms            :                   106
          number of electrons        :                   280
          charge                     :                     0
          spin                       :                   0.0
          first test random number   :      0.86368815201031

   ID    Z sym.   atoms
    1    7 N      1, 11
    2    6 C      2-6, 10, 12-15, 23, 24, 28, 32, 34, 38, 44, 45, 49, 53, 55,
                  59, 65, 66, 70, 74, 76, 80, 86-89, 91-94, 99, 100, 104
    3    1 H      7-9, 16-18, 20, 25-27, 29-31, 35-37, 39-41, 46-48, 50-52,
                  56-58, 60-62, 67-69, 71-73, 77-79, 81-85, 90, 95-98, 101,
                  103, 105, 106
    4   77 Ir     19
    5    5 B      21, 42, 63
    6    8 O      22, 33, 43, 54, 64, 75
    7   16 S      102

molecular fragmentation (1/2 indicates fragments):
111111111111111111111111111111111111111111111111111111111111111111111111
1111111111111222222222222222222222
# atoms in fragment 1/2:    85    21
 fragment masses (1/2) :      730.32      173.25
CMA distance (Bohr)    :  10.469
constraining FC (au)   :  0.0500

           -------------------------------------------------
          |                 G F N 2 - x T B                 |
           -------------------------------------------------

        Reference                      10.1021/acs.jctc.8b01176
      * Hamiltonian:
        H0-scaling (s, p, d)           1.850000    2.230000    2.230000
        zeta-weighting                 0.500000
      * Dispersion:
        s8                             2.700000
        a1                             0.520000
        a2                             5.000000
        s9                             5.000000
      * Repulsion:
        kExp                           1.500000    1.000000
        rExp                           1.000000
      * Coulomb:
        alpha                          2.000000
        third order                    shell-resolved
        anisotropic                    true
        a3                             3.000000
        a5                             4.000000
        cn-shift                       1.200000
        cn-exp                         4.000000
        max-rad                        5.000000

      * Solvation model:               ALPB
        Solvent                        thf
        Parameter file                 internal GFN2-xTB/ALPB
        Dielectric constant                7.6000E+00
        Reference state                gsolv [1 M gas/solution]
        Free energy shift                  5.3248E-03 Eh       3.3414E+00 kcal/mol
        Temperature                        2.9815E+02 K
        Density                            8.8300E-01 kg/L
        Solvent mass                       7.2106E+01 g/mol
        Interaction kernel             P16
        Born radius scaling (c1)           1.7311E+00
        Born radii integrator          GBOBC
        Born offset                        0.0000E+00 a0       0.0000E+00 AA
        H-bond correction              true
        Ion screening                  false
        Surface tension                    1.0000E-05 Eh       1.5569E+01 dyn/cm
        Grid points                               230 per atom
q/qsh data taken from xtbrestart
CAMM data taken from xtbrestart

          ...................................................
          :                      SETUP                      :
          :.................................................:
          :  # basis functions                 274          :
          :  # atomic orbitals                 272          :
          :  # shells                          160          :
          :  # electrons                       280          :
          :  max. iterations                   250          :
          :  Hamiltonian                  GFN2-xTB          :
          :  restarted?                       true          :
          :  GBSA solvation                   true          :
          :  PC potential                    false          :
          :  electronic temp.          300.0000000     K    :
          :  accuracy                    1.0000000          :
          :  -> integral cutoff          0.2500000E+02      :
          :  -> integral neglect         0.1000000E-07      :
          :  -> SCF convergence          0.1000000E-05 Eh   :
          :  -> wf. convergence          0.1000000E-03 e    :
          :  Broyden damping             0.4000000          :
          ...................................................

 iter      E             dE          RMSdq      gap      omega  full diag
   1   -154.4636542 -0.154464E+03  0.482E-05    0.86       0.0  T
   2   -154.4636542 -0.153477E-11  0.341E-05    0.86     285.0  T
   3   -154.4636542  0.540012E-12  0.263E-05    0.86     369.5  T

   *** convergence criteria satisfied after 3 iterations ***

         #    Occupation            Energy/Eh            Energy/eV
      -------------------------------------------------------------
         1        2.0000           -0.7254007             -19.7392
       ...           ...                  ...                  ...
       134        2.0000           -0.3623278              -9.8594
       135        2.0000           -0.3464978              -9.4287
       136        2.0000           -0.3320279              -9.0349
       137        2.0000           -0.3190932              -8.6830
       138        2.0000           -0.3167762              -8.6199
       139        2.0000           -0.3096393              -8.4257
       140        2.0000           -0.3074204              -8.3653 (HOMO)
       141        0.0000           -0.2756921              -7.5020 (LUMO)
       142                         -0.2474123              -6.7324
       143                         -0.2452910              -6.6747
       144                         -0.2432288              -6.6186
       145                         -0.2117555              -5.7622
       ...                                ...                  ...
       272                          3.6920314             100.4653
      -------------------------------------------------------------
                  HL-Gap            0.0317283 Eh            0.8634 eV
             Fermi-level           -0.2915124 Eh           -7.9325 eV

 SCC (total)                   0 d,  0 h,  0 min,  0.101 sec
 SCC setup                      ...        0 min,  0.004 sec (  3.560%)
 Dispersion                     ...        0 min,  0.003 sec (  3.203%)
 classical contributions        ...        0 min,  0.000 sec (  0.184%)
 integral evaluation            ...        0 min,  0.012 sec ( 12.270%)
 iterations                     ...        0 min,  0.040 sec ( 39.539%)
 molecular gradient             ...        0 min,  0.041 sec ( 40.518%)
 printout                       ...        0 min,  0.001 sec (  0.642%)

         :::::::::::::::::::::::::::::::::::::::::::::::::::::
         ::                     SUMMARY                     ::
         :::::::::::::::::::::::::::::::::::::::::::::::::::::
         :: total energy            -152.431372842836 Eh    ::
         :: total w/o Gsasa/hb      -152.388256629517 Eh    ::
         :: gradient norm              0.033022631193 Eh/a0 ::
         :: HOMO-LUMO gap              0.863369764675 eV    ::
         ::.................................................::
         :: SCC energy              -154.463654240891 Eh    ::
         :: -> isotropic ES            0.234157207846 Eh    ::
         :: -> anisotropic ES          0.012184548118 Eh    ::
         :: -> anisotropic XC          0.052154432390 Eh    ::
         :: -> dispersion             -0.153275736743 Eh    ::
         :: -> Gsolv                  -0.051404106387 Eh    ::
         ::    -> Gelec               -0.008287893067 Eh    ::
         ::    -> Gsasa               -0.045987402180 Eh    ::
         ::    -> Ghb                 -0.002453626584 Eh    ::
         ::    -> Gshift               0.005324815444 Eh    ::
         :: repulsion energy           2.023062565615 Eh    ::
         :: add. restraining           0.000000000000 Eh    ::
         :: total charge               0.000000000008 e     ::
         :::::::::::::::::::::::::::::::::::::::::::::::::::::

           -------------------------------------------------
          |                Property Printout                |
           -------------------------------------------------

    * Orbital Energies and Occupations

         #    Occupation            Energy/Eh            Energy/eV
      -------------------------------------------------------------
         1        2.0000           -0.7254007             -19.7392
       ...           ...                  ...                  ...
       128        2.0000           -0.3900832             -10.6147
       129        2.0000           -0.3875839             -10.5467
       130        2.0000           -0.3864789             -10.5166
       131        2.0000           -0.3829343             -10.4202
       132        2.0000           -0.3821635             -10.3992
       133        2.0000           -0.3813377             -10.3767
       134        2.0000           -0.3623278              -9.8594
       135        2.0000           -0.3464978              -9.4287
       136        2.0000           -0.3320279              -9.0349
       137        2.0000           -0.3190932              -8.6830
       138        2.0000           -0.3167762              -8.6199
       139        2.0000           -0.3096393              -8.4257
       140        2.0000           -0.3074204              -8.3653 (HOMO)
       141        0.0000           -0.2756921              -7.5020 (LUMO)
       142                         -0.2474123              -6.7324
       143                         -0.2452910              -6.6747
       144                         -0.2432288              -6.6186
       145                         -0.2117555              -5.7622
       146                         -0.2068859              -5.6297
       147                         -0.2035207              -5.5381
       148                         -0.1959657              -5.3325
       149                         -0.1860747              -5.0633
       150                         -0.1542864              -4.1983
       151                         -0.1411971              -3.8422
       ...                                ...                  ...
       272                          3.6920314             100.4653
      -------------------------------------------------------------
                  HL-Gap            0.0317283 Eh            0.8634 eV
             Fermi-level           -0.2915124 Eh           -7.9325 eV

     #   Z          covCN         q      C6AA      α(0)
     1   7 N        2.552    -0.124    23.721     7.233
     2   6 C        2.954     0.075    26.314     8.414
     3   6 C        2.918    -0.044    29.081     8.843
     4   6 C        2.923    -0.023    28.567     8.765
     5   6 C        2.915    -0.044    29.102     8.846
     6   6 C        2.893     0.048    26.912     8.505
     7   1 H        0.926     0.053     2.283     2.363
     8   1 H        0.926     0.054     2.266     2.354
     9   1 H        0.926     0.043     2.404     2.424
    10   6 C        2.952     0.072    26.378     8.424
    11   7 N        2.539    -0.135    23.966     7.270
    12   6 C        2.889     0.042    27.049     8.527
    13   6 C        2.915    -0.046    29.138     8.852
    14   6 C        2.922    -0.025    28.618     8.773
    15   6 C        2.918    -0.046    29.145     8.853
    16   1 H        0.926     0.041     2.429     2.437
    17   1 H        0.926     0.047     2.356     2.401
    18   1 H        0.926     0.075     2.028     2.227
    19  77 Ir       5.933    -0.150   387.547    36.405
    20   1 H        0.977     0.089     1.887     2.147
    21   5 B        2.629     0.404    16.011     6.761
    22   8 O        1.638    -0.410    21.056     6.194
    23   6 C        3.836     0.131    18.439     6.109
    24   6 C        3.755    -0.121    22.871     6.819
    25   1 H        0.925     0.054     2.275     2.359
    26   1 H        0.925     0.044     2.398     2.421
    27   1 H        0.925     0.050     2.316     2.380
    28   6 C        3.754    -0.106    22.592     6.777
    29   1 H        0.925     0.046     2.371     2.408
    30   1 H        0.925     0.040     2.455     2.450
    31   1 H        0.925     0.025     2.652     2.547
    32   6 C        3.841     0.131    18.427     6.107
    33   8 O        1.637    -0.407    20.989     6.184
    34   6 C        3.755    -0.120    22.851     6.816
    35   1 H        0.925     0.049     2.335     2.390
    36   1 H        0.925     0.046     2.374     2.410
    37   1 H        0.925     0.050     2.318     2.381
    38   6 C        3.754    -0.119    22.833     6.814
    39   1 H        0.925     0.045     2.381     2.413
    40   1 H        0.925     0.053     2.282     2.362
    41   1 H        0.925     0.044     2.392     2.418
    42   5 B        2.617     0.403    16.084     6.788
    43   8 O        1.637    -0.387    20.611     6.128
    44   6 C        3.832     0.129    18.469     6.115
    45   6 C        3.755    -0.127    22.989     6.837
    46   1 H        0.925     0.056     2.243     2.342
    47   1 H        0.925     0.056     2.251     2.346
    48   1 H        0.925     0.049     2.331     2.387
    49   6 C        3.755    -0.121    22.884     6.821
    50   1 H        0.925     0.047     2.358     2.401
    51   1 H        0.925     0.046     2.369     2.407
    52   1 H        0.925     0.052     2.290     2.366
    53   6 C        3.829     0.128    18.491     6.119
    54   8 O        1.637    -0.382    20.516     6.114
    55   6 C        3.755    -0.123    22.917     6.826
    56   1 H        0.925     0.051     2.302     2.372
    57   1 H        0.925     0.053     2.283     2.363
    58   1 H        0.925     0.048     2.350     2.397
    59   6 C        3.755    -0.126    22.964     6.833
    60   1 H        0.925     0.050     2.321     2.383
    61   1 H        0.925     0.052     2.300     2.371
    62   1 H        0.925     0.051     2.312     2.378
    63   5 B        2.628     0.400    16.070     6.774
    64   8 O        1.637    -0.373    20.349     6.089
    65   6 C        3.835     0.125    18.533     6.125
    66   6 C        3.755    -0.132    23.093     6.852
    67   1 H        0.925     0.059     2.212     2.326
    68   1 H        0.925     0.056     2.247     2.344
    69   1 H        0.925     0.051     2.311     2.377
    70   6 C        3.755    -0.129    23.044     6.845
    71   1 H        0.925     0.061     2.191     2.315
    72   1 H        0.925     0.050     2.315     2.379
    73   1 H        0.925     0.053     2.285     2.364
    74   6 C        3.829     0.127    18.506     6.121
    75   8 O        1.637    -0.379    20.460     6.106
    76   6 C        3.755    -0.125    22.945     6.830
    77   1 H        0.925     0.051     2.313     2.378
    78   1 H        0.925     0.052     2.296     2.370
    79   1 H        0.925     0.056     2.244     2.342
    80   6 C        3.755    -0.123    22.907     6.825
    81   1 H        0.925     0.040     2.444     2.445
    82   1 H        0.925     0.050     2.325     2.384
    83   1 H        0.925     0.054     2.269     2.356
    84   1 H        0.926     0.050     2.314     2.379
    85   1 H        0.926     0.046     2.371     2.408
    86   6 C        2.831    -0.027    28.673     8.775
    87   6 C        2.938    -0.036    28.906     8.818
    88   6 C        2.967     0.015    27.673     8.629
    89   6 C        2.972    -0.006    28.164     8.705
    90   1 H        0.926     0.021     2.717     2.578
    91   6 C        3.759    -0.135    23.145     6.859
    92   6 C        2.924    -0.047    29.168     8.857
    93   6 C        3.154    -0.005    27.846     8.629
    94   6 C        2.921    -0.047    29.174     8.857
    95   1 H        0.925     0.070     2.091     2.261
    96   1 H        0.925     0.066     2.131     2.283
    97   1 H        0.925     0.047     2.353     2.399
    98   1 H        0.925     0.034     2.536     2.490
    99   6 C        2.947    -0.027    28.686     8.784
   100   6 C        3.122    -0.051    29.076     8.831
   101   1 H        0.926     0.029     2.605     2.524
   102  16 S        2.291    -0.052   143.207    20.141
   103   1 H        0.926     0.026     2.638     2.540
   104   6 C        2.934    -0.025    28.632     8.776
   105   1 H        0.926     0.043     2.408     2.426
   106   1 H        0.926     0.051     2.311     2.377

 Mol. C6AA /au·bohr⁶  :     127164.856946
 Mol. C8AA /au·bohr⁸  :    3463896.558673
 Mol. α(0) /au        :        556.948878


Wiberg/Mayer (AO) data.
largest (>0.10) Wiberg bond orders for each atom

 ---------------------------------------------------------------------------
     #   Z sym  total        # sym  WBO       # sym  WBO       # sym  WBO
 ---------------------------------------------------------------------------
     1   7 N    3.397 --     6 C    1.388     2 C    1.310    19 Ir   0.438
     2   6 C    3.979 --     3 C    1.345     1 N    1.310    10 C    1.095
     3   6 C    3.988 --     4 C    1.486     2 C    1.345     9 H    0.962
                             6 C    0.106
     4   6 C    3.985 --     3 C    1.486     5 C    1.379    84 H    0.969
     5   6 C    3.979 --     6 C    1.462     4 C    1.379     8 H    0.969
     6   6 C    3.978 --     5 C    1.462     1 N    1.388     7 H    0.957
                             3 C    0.106
     7   1 H    0.997 --     6 C    0.957
     8   1 H    0.996 --     5 C    0.969
     9   1 H    0.998 --     3 C    0.962
    10   6 C    3.979 --    15 C    1.349    11 N    1.303     2 C    1.095
    11   7 N    3.384 --    12 C    1.387    10 C    1.303    19 Ir   0.404
    12   6 C    3.973 --    13 C    1.459    11 N    1.387    18 H    0.947
                            15 C    0.106
    13   6 C    3.982 --    12 C    1.459    14 C    1.381    17 H    0.969
    14   6 C    3.983 --    15 C    1.481    13 C    1.381    85 H    0.969
    15   6 C    3.989 --    14 C    1.481    10 C    1.349    16 H    0.962
                            12 C    0.106
    16   1 H    0.998 --    15 C    0.962
    17   1 H    0.997 --    13 C    0.969
    18   1 H    0.994 --    12 C    0.947
    19  77 Ir   5.146 --    63 B    0.886    42 B    0.862    21 B    0.713
                            86 C    0.580    20 H    0.524     1 N    0.438
                            11 N    0.404
    20   1 H    0.989 --    19 Ir   0.524    86 C    0.355
    21   5 B    3.265 --    33 O    1.104    22 O    1.090    19 Ir   0.713
    22   8 O    2.188 --    21 B    1.090    23 C    0.944
    23   6 C    3.944 --    24 C    0.997    28 C    0.990    22 O    0.944
                            32 C    0.941
    24   6 C    3.994 --    23 C    0.997    26 H    0.984    27 H    0.983
                            25 H    0.983
    25   1 H    0.997 --    24 C    0.983
    26   1 H    0.997 --    24 C    0.984
    27   1 H    0.997 --    24 C    0.983
    28   6 C    3.997 --    23 C    0.990    31 H    0.985    29 H    0.984
                            30 H    0.984
    29   1 H    0.997 --    28 C    0.984
    30   1 H    0.998 --    28 C    0.984
    31   1 H    0.999 --    28 C    0.985
    32   6 C    3.941 --    38 C    0.997    34 C    0.991    23 C    0.941
                            33 O    0.940
    33   8 O    2.196 --    21 B    1.104    32 C    0.940
    34   6 C    3.994 --    32 C    0.991    36 H    0.984    35 H    0.983
                            37 H    0.982
    35   1 H    0.998 --    34 C    0.983
    36   1 H    0.997 --    34 C    0.984
    37   1 H    0.997 --    34 C    0.982
    38   6 C    3.994 --    32 C    0.997    41 H    0.984    39 H    0.983
                            40 H    0.983
    39   1 H    0.998 --    38 C    0.983
    40   1 H    0.997 --    38 C    0.983
    41   1 H    0.997 --    38 C    0.984
    42   5 B    3.333 --    54 O    1.107    43 O    1.106    19 Ir   0.862
    43   8 O    2.221 --    42 B    1.106    44 C    0.937
    44   6 C    3.937 --    45 C    0.996    49 C    0.991    53 C    0.939
                            43 O    0.937
    45   6 C    3.993 --    44 C    0.996    48 H    0.983    47 H    0.982
                            46 H    0.982
    46   1 H    0.997 --    45 C    0.982
    47   1 H    0.997 --    45 C    0.982
    48   1 H    0.997 --    45 C    0.983
    49   6 C    3.994 --    44 C    0.991    50 H    0.983    51 H    0.983
                            52 H    0.979
    50   1 H    0.997 --    49 C    0.983
    51   1 H    0.998 --    49 C    0.983
    52   1 H    0.997 --    49 C    0.979
    53   6 C    3.938 --    55 C    0.996    59 C    0.991    44 C    0.939
                            54 O    0.935
    54   8 O    2.229 --    42 B    1.107    53 C    0.935
    55   6 C    3.993 --    53 C    0.996    58 H    0.983    57 H    0.983
                            56 H    0.983
    56   1 H    0.997 --    55 C    0.983
    57   1 H    0.997 --    55 C    0.983
    58   1 H    0.996 --    55 C    0.983
    59   6 C    3.994 --    53 C    0.991    61 H    0.983    62 H    0.983
                            60 H    0.981
    60   1 H    0.997 --    59 C    0.981
    61   1 H    0.996 --    59 C    0.983
    62   1 H    0.997 --    59 C    0.983
    63   5 B    3.365 --    64 O    1.115    75 O    1.114    19 Ir   0.886
    64   8 O    2.229 --    63 B    1.115    65 C    0.938
    65   6 C    3.938 --    70 C    0.997    66 C    0.991    74 C    0.938
                            64 O    0.938
    66   6 C    3.992 --    65 C    0.991    69 H    0.983    68 H    0.982
                            67 H    0.979
    67   1 H    0.997 --    66 C    0.979
    68   1 H    0.997 --    66 C    0.982
    69   1 H    0.996 --    66 C    0.983
    70   6 C    3.992 --    65 C    0.997    72 H    0.983    73 H    0.982
                            71 H    0.982
    71   1 H    0.996 --    70 C    0.982
    72   1 H    0.996 --    70 C    0.983
    73   1 H    0.997 --    70 C    0.982
    74   6 C    3.936 --    76 C    0.996    80 C    0.991    65 C    0.938
                            75 O    0.937
    75   8 O    2.235 --    63 B    1.114    74 C    0.937
    76   6 C    3.993 --    74 C    0.996    77 H    0.983    78 H    0.983
                            79 H    0.982
    77   1 H    0.996 --    76 C    0.983
    78   1 H    0.997 --    76 C    0.983
    79   1 H    0.997 --    76 C    0.982
    80   6 C    3.995 --    74 C    0.991    81 H    0.984    83 H    0.983
                            82 H    0.983
    81   1 H    0.998 --    80 C    0.984
    82   1 H    0.997 --    80 C    0.983
    83   1 H    0.996 --    80 C    0.983
    84   1 H    0.997 --     4 C    0.969
    85   1 H    0.997 --    14 C    0.969
    86   6 C    3.955 --    87 C    1.414    88 C    1.343    19 Ir   0.580
                            20 H    0.355
    87   6 C    3.989 --    86 C    1.414    89 C    1.365    90 H    0.957
    88   6 C    3.981 --    92 C    1.411    86 C    1.343    91 C    1.027
    89   6 C    3.985 --    94 C    1.380    87 C    1.365    93 C    1.057
    90   1 H    0.999 --    87 C    0.957
    91   6 C    3.990 --    88 C    1.027    97 H    0.984    96 H    0.962
                            95 H    0.954
    92   6 C    3.985 --    94 C    1.442    88 C    1.411    98 H    0.966
    93   6 C    3.984 --    99 C    1.566   100 C    1.218    89 C    1.057
    94   6 C    3.987 --    92 C    1.442    89 C    1.380   101 H    0.968
    95   1 H    0.994 --    91 C    0.954
    96   1 H    0.994 --    91 C    0.962
    97   1 H    0.997 --    91 C    0.984
    98   1 H    0.996 --    92 C    0.966
    99   6 C    3.939 --    93 C    1.566   102 S    1.187   103 H    0.970
                           104 C    0.113
   100   6 C    3.986 --   104 C    1.656    93 C    1.218   105 H    0.962
   101   1 H    0.997 --    94 C    0.968
   102  16 S    2.615 --    99 C    1.187   104 C    1.178
   103   1 H    0.999 --    99 C    0.970
   104   6 C    3.947 --   100 C    1.656   102 S    1.178   106 H    0.970
                            99 C    0.113
   105   1 H    0.998 --   100 C    0.962
   106   1 H    0.997 --   104 C    0.970
 ---------------------------------------------------------------------------

Topologies differ in total number of bonds
Writing topology from bond orders to xtbtopo.mol

molecular dipole:
                 x           y           z       tot (Debye)
 q only:        1.090       0.216      -0.705
   full:       -0.092       0.516      -1.230       3.400
molecular quadrupole (traceless):
                xx          xy          yy          xz          yz          zz
 q only:        8.191      -2.526      -0.453      10.157       9.567      -7.739
  q+dip:        5.776      -1.355      -1.703      11.673      12.706      -4.073
   full:        2.470      -0.434       1.707       9.596      10.143      -4.177


           -------------------------------------------------
          | TOTAL ENERGY             -152.431372842836 Eh   |
          | GRADIENT NORM               0.033022631193 Eh/α |
          | HOMO-LUMO GAP               0.863369764675 eV   |
           -------------------------------------------------

------------------------------------------------------------------------
 * finished run on 2022/01/14 at 13:49:55.902     
------------------------------------------------------------------------
 total:
 * wall-time:     0 d,  0 h,  0 min,  0.135 sec
 *  cpu-time:     0 d,  0 h,  0 min,  0.787 sec
 * ratio c/w:     5.835 speedup
 SCF:
 * wall-time:     0 d,  0 h,  0 min,  0.102 sec
 *  cpu-time:     0 d,  0 h,  0 min,  0.610 sec
 * ratio c/w:     5.971 speedup

