      -----------------------------------------------------------      
     |                   =====================                   |     
     |                           x T B                           |     
     |                   =====================                   |     
     |                         S. Grimme                         |     
     |          Mulliken Center for Theoretical Chemistry        |     
     |                    University of Bonn                     |     
      -----------------------------------------------------------      

   * xtb version 6.4.1 (1a32961) compiled by 'knkr256@seskscpg007.prim.scp' on 2021-10-19

   xtb is free software: you can redistribute it and/or modify it under
   the terms of the GNU Lesser General Public License as published by
   the Free Software Foundation, either version 3 of the License, or
   (at your option) any later version.
   
   xtb is distributed in the hope that it will be useful,
   but WITHOUT ANY WARRANTY; without even the implied warranty of
   MERCHANTABILITY or FITNESS FOR A PARTICULAR PURPOSE.  See the
   GNU Lesser General Public License for more details.
   
   Cite this work as:
   * C. Bannwarth, E. Caldeweyher, S. Ehlert, A. Hansen, P. Pracht,
     J. Seibert, S. Spicher, S. Grimme, WIREs Comput. Mol. Sci., 2020, 11,
     e01493. DOI: 10.1002/wcms.1493
   
   for GFN2-xTB:
   * C. Bannwarth, S. Ehlert and S. Grimme., J. Chem. Theory Comput., 2019,
     15, 1652-1671. DOI: 10.1021/acs.jctc.8b01176
   for GFN1-xTB:
   * S. Grimme, C. Bannwarth, P. Shushkov, J. Chem. Theory Comput., 2017,
     13, 1989-2009. DOI: 10.1021/acs.jctc.7b00118
   for GFN0-xTB:
   * P. Pracht, E. Caldeweyher, S. Ehlert, S. Grimme, ChemRxiv, 2019, preprint.
     DOI: 10.26434/chemrxiv.8326202.v1
   for GFN-FF:
   * S. Spicher and S. Grimme, Angew. Chem. Int. Ed., 2020, 59, 15665-15673.
     DOI: 10.1002/anie.202004239
   
   for ALPB and GBSA implicit solvation:
   * S. Ehlert, M. Stahn, S. Spicher, S. Grimme, J. Chem. Theory Comput.,
     2021, 17, 4250-4261. DOI: 10.1021/acs.jctc.1c00471
   
   for DFT-D4:
   * E. Caldeweyher, C. Bannwarth and S. Grimme, J. Chem. Phys., 2017,
     147, 034112. DOI: 10.1063/1.4993215
   * E. Caldeweyher, S. Ehlert, A. Hansen, H. Neugebauer, S. Spicher,
     C. Bannwarth and S. Grimme, J. Chem. Phys., 2019, 150, 154122.
     DOI: 10.1063/1.5090222
   * E. Caldeweyher, J.-M. Mewes, S. Ehlert and S. Grimme, Phys. Chem. Chem. Phys.
     2020, 22, 8499-8512. DOI: 10.1039/D0CP00502A
   
   for sTDA-xTB:
   * S. Grimme and C. Bannwarth, J. Chem. Phys., 2016, 145, 054103.
     DOI: 10.1063/1.4959605
   
   in the mass-spec context:
   * V. Asgeirsson, C. Bauer and S. Grimme, Chem. Sci., 2017, 8, 4879.
     DOI: 10.1039/c7sc00601b
   * J. Koopman and S. Grimme, ACS Omega 2019, 4, 12, 15120-15133.
     DOI: 10.1021/acsomega.9b02011
   
   for metadynamics refer to:
   * S. Grimme, J. Chem. Theory Comput., 2019, 155, 2847-2862
     DOI: 10.1021/acs.jctc.9b00143
   
   for SPH calculations refer to:
   * S. Spicher and S. Grimme, J. Chem. Theory Comput., 2021, 17, 1701-1714
     DOI: 10.1021/acs.jctc.0c01306
   
   with help from (in alphabetical order)
   P. Atkinson, C. Bannwarth, F. Bohle, G. Brandenburg, E. Caldeweyher
   M. Checinski, S. Dohm, S. Ehlert, S. Ehrlich, I. Gerasimov, J. Koopman
   C. Lavigne, S. Lehtola, F. März, M. Müller, F. Musil, H. Neugebauer
   J. Pisarek, C. Plett, P. Pracht, J. Seibert, P. Shushkov, S. Spicher
   M. Stahn, M. Steiner, T. Strunk, J. Stückrath, T. Rose, and J. Unsleber
   
 * started run on 2022/01/14 at 14:44:59.434     

           -------------------------------------------------
          |                Calculation Setup                |
           -------------------------------------------------

          program call               : xtb xtbopt.xyz --sp --alpb thf -P 6
          hostname                   : seskscpg007.prim.scp
          coordinate file            : xtbopt.xyz
          omp threads                :                     6
          number of atoms            :                   118
          number of electrons        :                   316
          charge                     :                     0
          spin                       :                   0.0
          first test random number   :      0.43276940695261

   ID    Z sym.   atoms
    1    7 N      1, 11, 96
    2    6 C      2-6, 10, 12-15, 23, 24, 28, 32, 34, 38, 44, 45, 49, 53, 55,
                  59, 65, 66, 70, 74, 76, 80, 86-89, 91, 93, 95, 97-100, 102,
                  105, 108, 110, 111
    3    1 H      7-9, 16-18, 20, 25-27, 29-31, 35-37, 39-41, 46-48, 50-52,
                  56-58, 60-62, 67-69, 71-73, 77-79, 81-85, 90, 92, 94, 101,
                  106, 107, 109, 112-118
    4   77 Ir     19
    5    5 B      21, 42, 63
    6    8 O      22, 33, 43, 54, 64, 75, 103, 104

molecular fragmentation (1/2 indicates fragments):
111111111111111111111111111111111111111111111111111111111111111111111111
1111111111111222222222222222222222222222222222
# atoms in fragment 1/2:    85    33
 fragment masses (1/2) :      730.32      252.29
CMA distance (Bohr)    :  13.164
constraining FC (au)   :  0.0500

           -------------------------------------------------
          |                 G F N 2 - x T B                 |
           -------------------------------------------------

        Reference                      10.1021/acs.jctc.8b01176
      * Hamiltonian:
        H0-scaling (s, p, d)           1.850000    2.230000    2.230000
        zeta-weighting                 0.500000
      * Dispersion:
        s8                             2.700000
        a1                             0.520000
        a2                             5.000000
        s9                             5.000000
      * Repulsion:
        kExp                           1.500000    1.000000
        rExp                           1.000000
      * Coulomb:
        alpha                          2.000000
        third order                    shell-resolved
        anisotropic                    true
        a3                             3.000000
        a5                             4.000000
        cn-shift                       1.200000
        cn-exp                         4.000000
        max-rad                        5.000000

      * Solvation model:               ALPB
        Solvent                        thf
        Parameter file                 internal GFN2-xTB/ALPB
        Dielectric constant                7.6000E+00
        Reference state                gsolv [1 M gas/solution]
        Free energy shift                  5.3248E-03 Eh       3.3414E+00 kcal/mol
        Temperature                        2.9815E+02 K
        Density                            8.8300E-01 kg/L
        Solvent mass                       7.2106E+01 g/mol
        Interaction kernel             P16
        Born radius scaling (c1)           1.7311E+00
        Born radii integrator          GBOBC
        Born offset                        0.0000E+00 a0       0.0000E+00 AA
        H-bond correction              true
        Ion screening                  false
        Surface tension                    1.0000E-05 Eh       1.5569E+01 dyn/cm
        Grid points                               230 per atom
q/qsh data taken from xtbrestart
CAMM data taken from xtbrestart

          ...................................................
          :                      SETUP                      :
          :.................................................:
          :  # basis functions                 301          :
          :  # atomic orbitals                 300          :
          :  # shells                          178          :
          :  # electrons                       316          :
          :  max. iterations                   250          :
          :  Hamiltonian                  GFN2-xTB          :
          :  restarted?                       true          :
          :  GBSA solvation                   true          :
          :  PC potential                    false          :
          :  electronic temp.          300.0000000     K    :
          :  accuracy                    1.0000000          :
          :  -> integral cutoff          0.2500000E+02      :
          :  -> integral neglect         0.1000000E-07      :
          :  -> SCF convergence          0.1000000E-05 Eh   :
          :  -> wf. convergence          0.1000000E-03 e    :
          :  Broyden damping             0.4000000          :
          ...................................................

 iter      E             dE          RMSdq      gap      omega  full diag
   1   -175.8942169 -0.175894E+03  0.188E-05    0.91       0.0  T
   2   -175.8942169  0.432010E-11  0.175E-05    0.91     527.0  T
   3   -175.8942169 -0.596856E-11  0.127E-05    0.91     723.2  T

   *** convergence criteria satisfied after 3 iterations ***

         #    Occupation            Energy/Eh            Energy/eV
      -------------------------------------------------------------
         1        2.0000           -0.7452994             -20.2806
       ...           ...                  ...                  ...
       152        2.0000           -0.3754515             -10.2166
       153        2.0000           -0.3465237              -9.4294
       154        2.0000           -0.3320897              -9.0366
       155        2.0000           -0.3229946              -8.7891
       156        2.0000           -0.3186446              -8.6708
       157        2.0000           -0.3114587              -8.4752
       158        2.0000           -0.3086919              -8.3999 (HOMO)
       159                         -0.2753997              -7.4940 (LUMO)
       160                         -0.2484832              -6.7616
       161                         -0.2469974              -6.7211
       162                         -0.2447878              -6.6610
       163                         -0.2289332              -6.2296
       ...                                ...                  ...
       300                          3.7243949             101.3459
      -------------------------------------------------------------
                  HL-Gap            0.0332922 Eh            0.9059 eV
             Fermi-level           -0.2920206 Eh           -7.9463 eV

 SCC (total)                   0 d,  0 h,  0 min,  0.121 sec
 SCC setup                      ...        0 min,  0.003 sec (  2.470%)
 Dispersion                     ...        0 min,  0.004 sec (  3.233%)
 classical contributions        ...        0 min,  0.000 sec (  0.163%)
 integral evaluation            ...        0 min,  0.014 sec ( 11.398%)
 iterations                     ...        0 min,  0.046 sec ( 37.988%)
 molecular gradient             ...        0 min,  0.053 sec ( 43.916%)
 printout                       ...        0 min,  0.001 sec (  0.781%)

         :::::::::::::::::::::::::::::::::::::::::::::::::::::
         ::                     SUMMARY                     ::
         :::::::::::::::::::::::::::::::::::::::::::::::::::::
         :: total energy            -173.593718592725 Eh    ::
         :: total w/o Gsasa/hb      -173.543369304030 Eh    ::
         :: gradient norm              0.033468080215 Eh/a0 ::
         :: HOMO-LUMO gap              0.905926335733 eV    ::
         ::.................................................::
         :: SCC energy              -175.894216893825 Eh    ::
         :: -> isotropic ES            0.293907622088 Eh    ::
         :: -> anisotropic ES          0.012385930666 Eh    ::
         :: -> anisotropic XC          0.055357212134 Eh    ::
         :: -> dispersion             -0.163290539514 Eh    ::
         :: -> Gsolv                  -0.064477983783 Eh    ::
         ::    -> Gelec               -0.014128695089 Eh    ::
         ::    -> Gsasa               -0.052463557783 Eh    ::
         ::    -> Ghb                 -0.003210546356 Eh    ::
         ::    -> Gshift               0.005324815444 Eh    ::
         :: repulsion energy           2.292185363340 Eh    ::
         :: add. restraining           0.000000000000 Eh    ::
         :: total charge               0.000000000001 e     ::
         :::::::::::::::::::::::::::::::::::::::::::::::::::::

           -------------------------------------------------
          |                Property Printout                |
           -------------------------------------------------

    * Orbital Energies and Occupations

         #    Occupation            Energy/Eh            Energy/eV
      -------------------------------------------------------------
         1        2.0000           -0.7452994             -20.2806
       ...           ...                  ...                  ...
       146        2.0000           -0.3921636             -10.6713
       147        2.0000           -0.3884096             -10.5692
       148        2.0000           -0.3869509             -10.5295
       149        2.0000           -0.3828570             -10.4181
       150        2.0000           -0.3813806             -10.3779
       151        2.0000           -0.3756885             -10.2230
       152        2.0000           -0.3754515             -10.2166
       153        2.0000           -0.3465237              -9.4294
       154        2.0000           -0.3320897              -9.0366
       155        2.0000           -0.3229946              -8.7891
       156        2.0000           -0.3186446              -8.6708
       157        2.0000           -0.3114587              -8.4752
       158        2.0000           -0.3086919              -8.3999 (HOMO)
       159                         -0.2753997              -7.4940 (LUMO)
       160                         -0.2484832              -6.7616
       161                         -0.2469974              -6.7211
       162                         -0.2447878              -6.6610
       163                         -0.2289332              -6.2296
       164                         -0.2190873              -5.9617
       165                         -0.2045745              -5.5668
       166                         -0.1953881              -5.3168
       167                         -0.1811761              -4.9301
       168                         -0.1684459              -4.5836
       169                         -0.1477856              -4.0215
       ...                                ...                  ...
       300                          3.7243949             101.3459
      -------------------------------------------------------------
                  HL-Gap            0.0332922 Eh            0.9059 eV
             Fermi-level           -0.2920206 Eh           -7.9463 eV

     #   Z          covCN         q      C6AA      α(0)
     1   7 N        2.549    -0.120    23.650     7.222
     2   6 C        2.956     0.077    26.268     8.406
     3   6 C        2.918    -0.042    29.042     8.837
     4   6 C        2.924    -0.023    28.569     8.765
     5   6 C        2.915    -0.043    29.077     8.842
     6   6 C        2.893     0.048    26.931     8.508
     7   1 H        0.926     0.054     2.276     2.359
     8   1 H        0.926     0.056     2.249     2.345
     9   1 H        0.926     0.046     2.364     2.404
    10   6 C        2.954     0.075    26.333     8.417
    11   7 N        2.568    -0.122    23.673     7.226
    12   6 C        2.890     0.042    27.064     8.529
    13   6 C        2.915    -0.045    29.120     8.849
    14   6 C        2.922    -0.024    28.601     8.770
    15   6 C        2.918    -0.045    29.122     8.849
    16   1 H        0.926     0.046     2.365     2.405
    17   1 H        0.926     0.050     2.316     2.380
    18   1 H        0.926     0.075     2.031     2.229
    19  77 Ir       5.952    -0.155   388.152    36.433
    20   1 H        0.977     0.086     1.917     2.163
    21   5 B        2.623     0.401    16.081     6.782
    22   8 O        1.637    -0.412    21.084     6.198
    23   6 C        3.835     0.131    18.439     6.109
    24   6 C        3.755    -0.121    22.883     6.821
    25   1 H        0.925     0.054     2.276     2.359
    26   1 H        0.925     0.045     2.387     2.416
    27   1 H        0.925     0.050     2.314     2.379
    28   6 C        3.754    -0.108    22.630     6.783
    29   1 H        0.925     0.047     2.360     2.402
    30   1 H        0.925     0.040     2.443     2.445
    31   1 H        0.925     0.028     2.609     2.526
    32   6 C        3.837     0.131    18.439     6.109
    33   8 O        1.637    -0.401    20.887     6.169
    34   6 C        3.755    -0.119    22.831     6.813
    35   1 H        0.925     0.046     2.372     2.409
    36   1 H        0.925     0.047     2.360     2.402
    37   1 H        0.925     0.050     2.319     2.381
    38   6 C        3.754    -0.119    22.838     6.814
    39   1 H        0.925     0.047     2.357     2.401
    40   1 H        0.925     0.052     2.290     2.367
    41   1 H        0.925     0.045     2.387     2.416
    42   5 B        2.624     0.405    16.030     6.770
    43   8 O        1.637    -0.379    20.461     6.106
    44   6 C        3.835     0.128    18.479     6.116
    45   6 C        3.755    -0.125    22.955     6.832
    46   1 H        0.925     0.053     2.289     2.366
    47   1 H        0.925     0.058     2.225     2.333
    48   1 H        0.925     0.050     2.325     2.385
    49   6 C        3.755    -0.122    22.899     6.823
    50   1 H        0.925     0.049     2.336     2.390
    51   1 H        0.925     0.046     2.371     2.408
    52   1 H        0.925     0.053     2.282     2.362
    53   6 C        3.832     0.128    18.485     6.117
    54   8 O        1.637    -0.384    20.541     6.118
    55   6 C        3.755    -0.124    22.927     6.827
    56   1 H        0.925     0.053     2.277     2.360
    57   1 H        0.925     0.053     2.278     2.360
    58   1 H        0.925     0.048     2.340     2.392
    59   6 C        3.755    -0.123    22.913     6.825
    60   1 H        0.925     0.045     2.386     2.416
    61   1 H        0.925     0.052     2.292     2.367
    62   1 H        0.925     0.048     2.345     2.395
    63   5 B        2.625     0.398    16.104     6.784
    64   8 O        1.637    -0.374    20.370     6.092
    65   6 C        3.832     0.125    18.530     6.124
    66   6 C        3.755    -0.129    23.037     6.844
    67   1 H        0.925     0.058     2.220     2.330
    68   1 H        0.925     0.054     2.271     2.357
    69   1 H        0.925     0.049     2.329     2.386
    70   6 C        3.755    -0.129    23.043     6.845
    71   1 H        0.925     0.060     2.195     2.317
    72   1 H        0.925     0.050     2.315     2.379
    73   1 H        0.925     0.052     2.292     2.368
    74   6 C        3.828     0.126    18.516     6.123
    75   8 O        1.637    -0.382    20.508     6.113
    76   6 C        3.755    -0.124    22.934     6.828
    77   1 H        0.925     0.050     2.316     2.380
    78   1 H        0.925     0.053     2.288     2.366
    79   1 H        0.925     0.054     2.269     2.355
    80   6 C        3.755    -0.123    22.924     6.827
    81   1 H        0.925     0.040     2.447     2.446
    82   1 H        0.925     0.052     2.296     2.369
    83   1 H        0.925     0.054     2.272     2.357
    84   1 H        0.926     0.053     2.288     2.365
    85   1 H        0.926     0.050     2.318     2.381
    86   6 C        2.828    -0.025    28.624     8.767
    87   6 C        2.927    -0.033    28.812     8.803
    88   6 C        2.917    -0.041    29.018     8.834
    89   6 C        2.910    -0.053    29.319     8.879
    90   1 H        0.926     0.033     2.545     2.495
    91   6 C        3.055    -0.011    28.226     8.713
    92   1 H        0.926     0.055     2.264     2.353
    93   6 C        3.034     0.045    26.957     8.516
    94   1 H        0.926     0.049     2.330     2.387
    95   6 C        3.058    -0.010    28.201     8.709
    96   7 N        2.786    -0.082    22.836     7.097
    97   6 C        2.914    -0.035    28.877     8.812
    98   6 C        3.044     0.054    26.740     8.481
    99   6 C        2.655     0.406    20.163     7.347
   100   6 C        2.920    -0.040    29.004     8.832
   101   1 H        0.926     0.044     2.398     2.422
   102   6 C        2.911    -0.047    29.171     8.856
   103   8 O        0.857    -0.496    23.708     6.528
   104   8 O        1.704    -0.298    18.951     5.878
   105   6 C        2.925    -0.037    28.915     8.818
   106   1 H        0.926     0.047     2.358     2.401
   107   1 H        0.926     0.056     2.249     2.345
   108   6 C        3.744     0.124    18.632     6.158
   109   1 H        0.926     0.046     2.377     2.411
   110   6 C        3.752    -0.125    22.960     6.833
   111   6 C        3.753    -0.129    23.043     6.845
   112   1 H        0.924     0.045     2.386     2.416
   113   1 H        0.925     0.059     2.209     2.324
   114   1 H        0.925     0.052     2.298     2.370
   115   1 H        0.925     0.063     2.163     2.300
   116   1 H        0.925     0.064     2.156     2.296
   117   1 H        0.925     0.066     2.129     2.282
   118   1 H        0.925     0.060     2.204     2.321

 Mol. C6AA /au·bohr⁶  :     151926.528001
 Mol. C8AA /au·bohr⁸  :    3981777.341668
 Mol. α(0) /au        :        605.074998


Wiberg/Mayer (AO) data.
largest (>0.10) Wiberg bond orders for each atom

 ---------------------------------------------------------------------------
     #   Z sym  total        # sym  WBO       # sym  WBO       # sym  WBO
 ---------------------------------------------------------------------------
     1   7 N    3.402 --     6 C    1.386     2 C    1.309    19 Ir   0.448
     2   6 C    3.978 --     3 C    1.350     1 N    1.309    10 C    1.091
     3   6 C    3.988 --     4 C    1.483     2 C    1.350     9 H    0.962
                             6 C    0.106
     4   6 C    3.983 --     3 C    1.483     5 C    1.382    84 H    0.969
     5   6 C    3.979 --     6 C    1.462     4 C    1.382     8 H    0.968
     6   6 C    3.978 --     5 C    1.462     1 N    1.386     7 H    0.956
                             3 C    0.106
     7   1 H    0.997 --     6 C    0.956
     8   1 H    0.996 --     5 C    0.968
     9   1 H    0.997 --     3 C    0.962
    10   6 C    3.979 --    15 C    1.352    11 N    1.305     2 C    1.091
    11   7 N    3.415 --    12 C    1.386    10 C    1.305    19 Ir   0.441
    12   6 C    3.973 --    13 C    1.458    11 N    1.386    18 H    0.948
                            15 C    0.106
    13   6 C    3.982 --    12 C    1.458    14 C    1.384    17 H    0.969
    14   6 C    3.983 --    15 C    1.480    13 C    1.384    85 H    0.969
    15   6 C    3.989 --    14 C    1.480    10 C    1.352    16 H    0.962
                            12 C    0.106
    16   1 H    0.997 --    15 C    0.962
    17   1 H    0.997 --    13 C    0.969
    18   1 H    0.994 --    12 C    0.948
    19  77 Ir   5.185 --    63 B    0.868    42 B    0.848    21 B    0.721
                            86 C    0.599    20 H    0.537     1 N    0.448
                            11 N    0.441
    20   1 H    0.988 --    19 Ir   0.537    86 C    0.339
    21   5 B    3.266 --    33 O    1.113    22 O    1.087    19 Ir   0.721
    22   8 O    2.186 --    21 B    1.087    23 C    0.943
    23   6 C    3.944 --    24 C    0.997    28 C    0.990    22 O    0.943
                            32 C    0.941
    24   6 C    3.994 --    23 C    0.997    26 H    0.984    27 H    0.983
                            25 H    0.983
    25   1 H    0.997 --    24 C    0.983
    26   1 H    0.997 --    24 C    0.984
    27   1 H    0.997 --    24 C    0.983
    28   6 C    3.997 --    23 C    0.990    31 H    0.985    29 H    0.984
                            30 H    0.984
    29   1 H    0.997 --    28 C    0.984
    30   1 H    0.998 --    28 C    0.984
    31   1 H    0.999 --    28 C    0.985
    32   6 C    3.941 --    38 C    0.996    34 C    0.991    23 C    0.941
                            33 O    0.940
    33   8 O    2.205 --    21 B    1.113    32 C    0.940
    34   6 C    3.995 --    32 C    0.991    36 H    0.984    35 H    0.984
                            37 H    0.983
    35   1 H    0.998 --    34 C    0.984
    36   1 H    0.997 --    34 C    0.984
    37   1 H    0.997 --    34 C    0.983
    38   6 C    3.994 --    32 C    0.996    41 H    0.984    39 H    0.983
                            40 H    0.983
    39   1 H    0.998 --    38 C    0.983
    40   1 H    0.997 --    38 C    0.983
    41   1 H    0.997 --    38 C    0.984
    42   5 B    3.336 --    43 O    1.122    54 O    1.106    19 Ir   0.848
    43   8 O    2.230 --    42 B    1.122    44 C    0.936
    44   6 C    3.936 --    45 C    0.997    49 C    0.991    53 C    0.938
                            43 O    0.936
    45   6 C    3.993 --    44 C    0.997    48 H    0.983    46 H    0.982
                            47 H    0.981
    46   1 H    0.997 --    45 C    0.982
    47   1 H    0.996 --    45 C    0.981
    48   1 H    0.996 --    45 C    0.983
    49   6 C    3.994 --    44 C    0.991    50 H    0.983    51 H    0.983
                            52 H    0.980
    50   1 H    0.997 --    49 C    0.983
    51   1 H    0.998 --    49 C    0.983
    52   1 H    0.997 --    49 C    0.980
    53   6 C    3.938 --    55 C    0.996    59 C    0.992    44 C    0.938
                            54 O    0.935
    54   8 O    2.225 --    42 B    1.106    53 C    0.935
    55   6 C    3.993 --    53 C    0.996    58 H    0.983    57 H    0.983
                            56 H    0.982
    56   1 H    0.997 --    55 C    0.982
    57   1 H    0.997 --    55 C    0.983
    58   1 H    0.996 --    55 C    0.983
    59   6 C    3.994 --    53 C    0.992    62 H    0.983    61 H    0.983
                            60 H    0.981
    60   1 H    0.998 --    59 C    0.981
    61   1 H    0.996 --    59 C    0.983
    62   1 H    0.997 --    59 C    0.983
    63   5 B    3.361 --    64 O    1.118    75 O    1.113    19 Ir   0.868
    64   8 O    2.233 --    63 B    1.118    65 C    0.939
    65   6 C    3.937 --    70 C    0.996    66 C    0.991    64 O    0.939
                            74 C    0.937
    66   6 C    3.992 --    65 C    0.991    69 H    0.983    68 H    0.983
                            67 H    0.979
    67   1 H    0.997 --    66 C    0.979
    68   1 H    0.997 --    66 C    0.983
    69   1 H    0.997 --    66 C    0.983
    70   6 C    3.992 --    65 C    0.996    72 H    0.983    73 H    0.982
                            71 H    0.982
    71   1 H    0.996 --    70 C    0.982
    72   1 H    0.996 --    70 C    0.983
    73   1 H    0.997 --    70 C    0.982
    74   6 C    3.936 --    76 C    0.996    80 C    0.991    75 O    0.937
                            65 C    0.937
    75   8 O    2.230 --    63 B    1.113    74 C    0.937
    76   6 C    3.993 --    74 C    0.996    77 H    0.983    78 H    0.983
                            79 H    0.982
    77   1 H    0.996 --    76 C    0.983
    78   1 H    0.997 --    76 C    0.983
    79   1 H    0.997 --    76 C    0.982
    80   6 C    3.995 --    74 C    0.991    81 H    0.983    83 H    0.983
                            82 H    0.983
    81   1 H    0.998 --    80 C    0.983
    82   1 H    0.997 --    80 C    0.983
    83   1 H    0.996 --    80 C    0.983
    84   1 H    0.996 --     4 C    0.969
    85   1 H    0.996 --    14 C    0.969
    86   6 C    3.941 --    88 C    1.388    87 C    1.372    19 Ir   0.599
                            20 H    0.339
    87   6 C    3.968 --    89 C    1.435    86 C    1.372    90 H    0.965
    88   6 C    3.975 --    91 C    1.391    86 C    1.388    92 H    0.957
                            89 C    0.101
    89   6 C    3.984 --    87 C    1.435    93 C    1.393    94 H    0.962
                            88 C    0.101
    90   1 H    0.998 --    87 C    0.965
    91   6 C    3.983 --    88 C    1.391    93 C    1.278    95 C    1.112
    92   1 H    0.996 --    88 C    0.957
    93   6 C    3.942 --    89 C    1.393    91 C    1.278    96 N    1.049
    94   1 H    0.997 --    89 C    0.962
    95   6 C    3.983 --    97 C    1.380    98 C    1.290    91 C    1.112
    96   7 N    3.573 --    99 C    1.139    98 C    1.056    93 C    1.049
                           103 O    0.117
    97   6 C    3.980 --   100 C    1.457    95 C    1.380   101 H    0.967
                           102 C    0.106
    98   6 C    3.948 --   102 C    1.395    95 C    1.290    96 N    1.056
    99   6 C    3.939 --   103 O    1.609    96 N    1.139   104 O    1.104
   100   6 C    3.986 --    97 C    1.457   105 C    1.419   106 H    0.970
   101   1 H    0.998 --    97 C    0.967
   102   6 C    3.987 --   105 C    1.443    98 C    1.395   107 H    0.963
                            97 C    0.106
   103   8 O    1.945 --    99 C    1.609   104 O    0.141    96 N    0.117
   104   8 O    2.264 --    99 C    1.104   108 C    0.904   103 O    0.141
   105   6 C    3.969 --   102 C    1.443   100 C    1.419   109 H    0.970
   106   1 H    0.997 --   100 C    0.970
   107   1 H    0.996 --   102 C    0.963
   108   6 C    3.911 --   111 C    1.007   110 C    1.004   112 H    0.962
                           104 O    0.904
   109   1 H    0.998 --   105 C    0.970
   110   6 C    3.991 --   108 C    1.004   114 H    0.985   113 H    0.985
                           115 H    0.982
   111   6 C    3.989 --   108 C    1.007   118 H    0.984   116 H    0.984
                           117 H    0.982
   112   1 H    0.998 --   108 C    0.962
   113   1 H    0.996 --   110 C    0.985
   114   1 H    0.997 --   110 C    0.985
   115   1 H    0.995 --   110 C    0.982
   116   1 H    0.996 --   111 C    0.984
   117   1 H    0.995 --   111 C    0.982
   118   1 H    0.996 --   111 C    0.984
 ---------------------------------------------------------------------------

Topologies differ in total number of bonds
Writing topology from bond orders to xtbtopo.mol

molecular dipole:
                 x           y           z       tot (Debye)
 q only:       -0.354       0.655      -2.234
   full:       -1.628       0.918      -2.599       8.137
molecular quadrupole (traceless):
                xx          xy          yy          xz          yz          zz
 q only:       43.917       8.978       7.122      -5.669      26.560     -51.039
  q+dip:       45.242      10.914       2.822      -8.341      28.036     -48.064
   full:       41.236      10.950       8.928     -10.392      26.371     -50.164


           -------------------------------------------------
          | TOTAL ENERGY             -173.593718592725 Eh   |
          | GRADIENT NORM               0.033468080215 Eh/α |
          | HOMO-LUMO GAP               0.905926335733 eV   |
           -------------------------------------------------

------------------------------------------------------------------------
 * finished run on 2022/01/14 at 14:44:59.594     
------------------------------------------------------------------------
 total:
 * wall-time:     0 d,  0 h,  0 min,  0.159 sec
 *  cpu-time:     0 d,  0 h,  0 min,  0.930 sec
 * ratio c/w:     5.842 speedup
 SCF:
 * wall-time:     0 d,  0 h,  0 min,  0.123 sec
 *  cpu-time:     0 d,  0 h,  0 min,  0.733 sec
 * ratio c/w:     5.965 speedup

