108
 energy: -154.730308196897 gnorm: 0.077395043130 xtb: 6.4.0 (f63f532)
N        -0.96510000000000   -2.11530000000000   -0.24090000000000
C        -2.24700000000000   -1.69840000000000   -0.36220000000000
C        -3.14040000000000   -2.36820000000000   -1.21200000000000
C        -2.70220000000000   -3.47560000000000   -1.93050000000000
C        -1.37779999999999   -3.89880000000000   -1.78760000000000
C        -0.54290000000000   -3.18670000000000   -0.93510000000000
H         0.49810000000000   -3.45630000000000   -0.78940000000000
H        -0.99570000000000   -4.76030000000000   -2.32770000000000
H        -4.16500000000000   -2.02890000000000   -1.31830000000000
C        -2.62130000000000   -0.50950000000000    0.44100000000000
N        -1.62600000000000    0.07330000000000    1.16020000000000
C        -1.89680000000000    1.15240000000000    1.91690000000000
C        -3.17230000000000    1.70330000000000    1.99650000000000
C        -4.20510000000000    1.11740000000000    1.26270000000000
C        -3.92610000000000    0.00250000000001    0.47820000000000
H        -4.71960000000000   -0.46420000000000   -0.09520000000000
H        -3.34630000000000    2.57510000000000    2.62070000000001
H        -1.04450000000000    1.57420000000001    2.43690000000000
Ir        0.42150000000000   -0.81650000000000    0.91330000000000
H         0.87260000000000   -2.23030000000000    1.54050000000000
B         0.50670000000000    0.41560000000000   -0.81540000000000
O         0.19500000000000   -0.04700000000000   -2.09150000000000
C         0.00650000000000    1.10040000000000   -2.95430000000000
C         0.49020000000000    0.74740000000000   -4.35780000000000
H         1.51610000000000    0.37380000000000   -4.33700000000000
H         0.44729999999999    1.62240000000000   -5.01670000000000
H        -0.14740000000000   -0.03390000000000   -4.78430000000000
C        -1.50120000000000    1.39560000000000   -2.96670000000000
H        -1.75370000000000    2.21460000000000   -3.64850000000000
H        -2.03200000000000    0.49450000000000   -3.28930000000000
H        -1.85170000000000    1.65210000000000   -1.96220000000000
C         0.84230000000000    2.20670000000000   -2.22040000000000
O         0.75200000000000    1.78260000000000   -0.83690000000000
C         2.32930000000001    2.18620000000000   -2.59900000000001
H         2.74130000000000    1.18500000000000   -2.45750000000000
H         2.48870000000000    2.51300000000000   -3.63180000000000
H         2.87200000000000    2.86270000000000   -1.93200000000000
C         0.28440000000000    3.62290000000000   -2.33659999999999
H        -0.72650000000000    3.69040000000000   -1.92910000000001
H         0.92130000000000    4.31480000000000   -1.77610000000000
H         0.26430000000000    3.94810000000000   -3.38320000000001
B         1.56300000000000    0.60960000000000    1.84840000000000
O         2.92780000000000    0.55230000000000    2.15020000000000
C         3.36330000000000    1.88660000000000    2.50260000000000
C         4.53140000000000    1.78590000000000    3.47740000000000
H         4.27910000000000    1.16090000000000    4.33690000000001
H         5.39390000000000    1.33790000000000    2.97340000000001
H         4.82390000000001    2.77870000000000    3.83820000000001
C         3.79700000000001    2.56850000000000    1.19669999999999
H         4.20020000000000    3.57090000000000    1.37679999999999
H         4.56740000000000    1.95560000000000    0.72110000000000
H         2.95240000000000    2.63260000000000    0.50540000000000
C         2.05040000000000    2.50090000000001    3.09320000000000
O         1.03750000000000    1.81620000000000    2.31910000000000
C         1.89100000000000    4.00450000000000    2.88650000000001
H         1.87290000000000    4.25440000000000    1.82410000000000
H         0.94940000000001    4.34260000000000    3.33170000000000
H         2.71079999999999    4.55150000000000    3.36629999999999
C         1.82470000000000    2.13200000000000    4.56519999999999
H         1.92610000000000    1.05330000000000    4.71320000000000
H         2.52610000000000    2.65280000000001    5.22540000000000
H         0.80630000000000    2.41580000000001    4.84900000000000
B         2.27820000000000   -1.33090000000000    0.17410000000000
O         2.89460000000000   -2.57740000000000    0.38450000000000
C         4.26930000000000   -2.48200000000000   -0.07210000000000
C         5.10900000000000   -2.05380000000000    1.14010000000000
H         4.76350000000000   -1.08739999999999    1.51750000000000
H         4.98050000000000   -2.79470000000001    1.93590000000000
H         6.17420000000000   -1.99290000000000    0.89300000000000
C         4.71949999999999   -3.84660000000000   -0.58470000000001
H         4.75280000000000   -4.56130000000000    0.24420000000000
H         5.72330000000001   -3.78370000000000   -1.02010000000000
H         4.03500000000000   -4.23600000000000   -1.34170000000000
C         4.16439999999999   -1.36220000000000   -1.16299999999999
O         3.08520000000000   -0.55030000000001   -0.65400000000000
C         5.40720000000001   -0.48870000000000   -1.31550000000001
H         6.27320000000000   -1.09009999999999   -1.61530000000000
H         5.23300000000000    0.26930000000000   -2.08590000000000
H         5.64270000000000    0.02650000000000   -0.38240000000001
C         3.71800000000001   -1.89830000000000   -2.53110000000001
H         2.82529999999999   -2.52160000000000   -2.42739999999999
H         3.46090000000000   -1.05249999999998   -3.17550000000001
H         4.50570000000000   -2.48290000000002   -3.01790000000000
H        -3.38500000000001   -4.00130000000002   -2.59309999999999
H        -5.21399999999999    1.52080000000001    1.29959999999998
C         0.23589999999999   -1.68140000000002    2.96029999999997
C        -0.87555936709216   -2.10306098390091    3.71549352159505
C         1.47666207003563   -1.83041060198522    3.61364880692332
C        -2.32851797701457   -1.93008574810675    3.34417523593894
C        -0.69557955572082   -2.65752653672775    4.98787925554209
C         1.65023511078797   -2.36049647786224    4.88089352360142
H         2.37226932721441   -1.54536428969994    3.07721122133756
C        -2.94298328319892   -2.91794230334603    2.39089910628065
H        -2.92811411511927   -1.99472108924165    4.25966745320023
H        -2.50349986844454   -0.92526922851012    2.95961215260645
C         0.54522062323840   -2.82046846981577    5.57755556406893
H        -1.57238269231607   -2.99050419108704    5.53270366508568
H         2.64519680079318   -2.45425754791696    5.29809936290575
N        -4.22592021756435   -2.67017619228970    2.09864548427567
C        -2.27633773568544   -4.03227004197385    1.89207307029309
H         0.64141580869264   -3.29121627384286    6.54752507007699
C        -4.87659284360352   -3.52069993305954    1.31268017406662
C        -2.96679674368669   -4.91209815369062    1.07254959843749
H        -1.23861643697469   -4.19779625153565    2.14654772801936
C        -4.29849339316211   -4.65774499812053    0.77629780170859
H        -5.91231987453570   -3.26376527968860    1.12097654663254
H        -2.47279152639442   -5.78747067047429    0.67091090423404
H        -4.87277530759726   -5.32269704684463    0.14756349416756
108
 energy: -154.737694422598 gnorm: 0.048815275739 xtb: 6.4.0 (f63f532)
N        -0.96004895211167   -2.09130486633814   -0.26379690074031
C        -2.23641987618323   -1.67783449105904   -0.38124234069795
C        -3.13336009919005   -2.35574479081777   -1.21454326840319
C        -2.70432140808841   -3.46063893235600   -1.92543983946362
C        -1.38567094848249   -3.88154777015606   -1.78375063383658
C        -0.55548398335101   -3.16590153061662   -0.94362482693284
H         0.47753531265823   -3.44771255082377   -0.79096135855619
H        -1.00997763902753   -4.74341901608379   -2.31690662693254
H        -4.15458560946558   -2.02198289316660   -1.31499941004288
C        -2.60272615707257   -0.48856228353985    0.40117921248705
N        -1.60524990178966    0.10475009560159    1.09495990314608
C        -1.88729687511786    1.16452158849085    1.86009927450293
C        -3.16056378472738    1.69572888770271    1.97238159439719
C        -4.19341616638599    1.10665252725417    1.25127431831610
C        -3.91031929061956    0.00649157091362    0.46251499183625
H        -4.70546829931902   -0.46832869011913   -0.09063411294834
H        -3.33856199308600    2.54930454612974    2.61185091371510
H        -1.04786163839773    1.56992552867084    2.40599836381282
Ir        0.42150000000000   -0.81650000000000    0.91330000000000
H         0.87260000000000   -2.23030000000000    1.54050000000000
B         0.49852654617433    0.42151374566255   -0.79300175562161
O         0.17768927233189   -0.03571681916469   -2.06487887963344
C         0.01015859244129    1.09695397558965   -2.94367439009710
C         0.48819886652903    0.74828772345816   -4.34920940812724
H         1.50731000607991    0.37171543529538   -4.32868191162011
H         0.44281325974523    1.62386712720154   -4.99751203688688
H        -0.15070052633858   -0.02780064923739   -4.76936435495673
C        -1.49421015696109    1.39922242045620   -2.96871223101005
H        -1.73355219268128    2.21236053061879   -3.65245173738706
H        -2.02472325902324    0.50220968751736   -3.28833990627214
H        -1.84084515824246    1.65368709366836   -1.96696275611897
C         0.83201168343982    2.20690714306793   -2.21269398253853
O         0.75762427861020    1.77859318618654   -0.83604954856620
C         2.31448653389153    2.19138411759380   -2.60072642396480
H         2.71914475082516    1.19227093736357   -2.45147800653460
H         2.46595309169896    2.51322106379964   -3.63038162170303
H         2.85685721771588    2.86584768841594   -1.93904095604925
C         0.27996523930159    3.62297633941653   -2.33858776595702
H        -0.72328165129164    3.69152934433289   -1.92604749459145
H         0.91954853736714    4.30672364471011   -1.78186302693264
H         0.26180973011900    3.93617202187396   -3.38263844431925
B         1.56221063678980    0.62016002732502    1.85371828688524
O         2.92433507558582    0.56965561807629    2.12967830744742
C         3.36334641205731    1.88893748549837    2.50687642306791
C         4.53311346269351    1.78873885261269    3.47768543123749
H         4.28004513748463    1.15992782554821    4.32725713711348
H         5.38825602040760    1.34442147706951    2.96998740576863
H         4.81661569748116    2.77844210960693    3.83482897006597
C         3.79966287141958    2.57615163082826    1.20869602354743
H         4.20148993906485    3.57152324780510    1.39282526006156
H         4.56342272301713    1.96403191920895    0.73177927652817
H         2.95144469454750    2.62868250072129    0.52741031826807
C         2.05345202300372    2.50571101316970    3.08894188870324
O         1.03980160399018    1.81215067273777    2.33519868542203
C         1.89482731498516    4.00791907044703    2.88952172971275
H         1.86923103323897    4.25190607451846    1.83126302516930
H         0.95743517851417    4.33667494580446    3.33643157789069
H         2.71555894982111    4.54376154627652    3.36570668197528
C         1.83328813779647    2.13891171786637    4.56080233017318
H         1.93572062285437    1.06280326513537    4.69741353646045
H         2.53443562965114    2.66001765643751    5.21027902695239
H         0.81892029470517    2.41700751363494    4.84601126835660
B         2.27820000000000   -1.33090000000001    0.17409999999999
O         2.90201199305703   -2.56204478897080    0.38945351794737
C         4.26610063539853   -2.48337768070949   -0.07955858243140
C         5.11082057103735   -2.05867970522933    1.12630548584820
H         4.75579202261352   -1.09814750470034    1.49772941967595
H         4.97958187297155   -2.79441841501876    1.91904482000563
H         6.16850035068830   -1.99864034244150    0.87446581818544
C         4.72033671552893   -3.84559696962175   -0.58965499569179
H         4.75013365525669   -4.55009628648486    0.24032641352195
H         5.71792716355110   -3.77427747302195   -1.02227766431348
H         4.03423319976169   -4.23276355414332   -1.33822808888548
C         4.16566645579038   -1.36000398097763   -1.15916814821351
O         3.07405509855336   -0.56353956542448   -0.66206062486112
C         5.40892367916685   -0.49171581641184   -1.31722439264910
H         6.26508063054040   -1.09729498345764   -1.61355480836952
H         5.23021992997504    0.25963364510067   -2.08526714225006
H         5.63715660228671    0.02270467693427   -0.38819398134053
C         3.72778535550158   -1.89902084531651   -2.52719899511911
H         2.83559088966676   -2.51437743789598   -2.41853338115106
H         3.47016348485439   -1.05737356892774   -3.16883649870239
H         4.51741952402294   -2.47611156651878   -3.00568307409890
H        -3.38466045143619   -3.98775134775129   -2.58043380071923
H        -5.20040646211623    1.49865705985697    1.30399158437019
C         0.23589999999998   -1.68140000000005    2.96029999999996
C        -0.87748648158539   -2.10320593452434    3.71578075483312
C         1.47873540420513   -1.82742135242514    3.61917219335602
C        -2.32975505842457   -1.93363816743808    3.34205709467716
C        -0.69563825230214   -2.65384836297103    4.98871547432172
C         1.64704120211217   -2.35415159333124    4.88521117175723
H         2.37329240757071   -1.54237755469715    3.08538939607745
C        -2.94196263212035   -2.91990892209208    2.38948163928305
H        -2.92946969759116   -1.99802991871081    4.25653652583517
H        -2.50632184240415   -0.93226724995755    2.96023218426617
C         0.54178677807850   -2.81310594865005    5.57806579390861
H        -1.57080916913633   -2.98648195580528    5.53315161950217
H         2.63934697830009   -2.44626078844384    5.30485958045487
N        -4.22009380197848   -2.67574600024921    2.09594472400293
C        -2.27315713574629   -4.03331927274091    1.89308715279945
H         0.63690798227742   -3.28141046282582    6.54756176206523
C        -4.86856764998332   -3.52312535787980    1.31414199086555
C        -2.96059125398461   -4.91450549423000    1.07549228656247
H        -1.23749030022534   -4.19718950602458    2.14917294404006
C        -4.29151389124374   -4.66134152254769    0.77853870491038
H        -5.90362691665495   -3.26689320400950    1.12180851640011
H        -2.46652802053775   -5.78897121154517    0.67629905462334
H        -4.86513037380583   -5.32638592339239    0.15118846179810
108
 energy: -154.739924664415 gnorm: 0.040108600461 xtb: 6.4.0 (f63f532)
N        -0.95154077683327   -2.07852293487408   -0.27890074015899
C        -2.22169171030205   -1.65739577682891   -0.40223251499920
C        -3.12451130122451   -2.33415370689062   -1.22872813184322
C        -2.70788701005888   -3.44360790107319   -1.93091166436011
C        -1.39152138188188   -3.86851133825795   -1.78907848413890
C        -0.56173674514764   -3.15451628959409   -0.95300510888239
H         0.46725947406540   -3.44621617087505   -0.80078298460664
H        -1.02395668500254   -4.73397902526889   -2.31552966361377
H        -4.14431610022769   -2.00114329365066   -1.31960589386558
C        -2.58280608080560   -0.47610091895437    0.37375754159807
N        -1.58789112957931    0.11135331952529    1.06899712191771
C        -1.87608126648217    1.16678988500920    1.82846031235935
C        -3.14540957134731    1.69491293808639    1.94808457598689
C        -4.18040021889585    1.10223017478111    1.23341811308040
C        -3.89206835686984    0.01222555014060    0.44089450234267
H        -4.68692673835832   -0.47219618224449   -0.09914914053465
H        -3.32587644741939    2.53635782236197    2.59744614952274
H        -1.03896128054880    1.58576418311422    2.36246861179979
Ir        0.42150000000000   -0.81650000000000    0.91330000000000
H         0.87260000000000   -2.23030000000000    1.54050000000000
B         0.50660665835840    0.42948433135690   -0.77375507379688
O         0.16081615052476   -0.02646704738755   -2.03771939246492
C         0.00539471844798    1.09465804637062   -2.92444841500438
C         0.48583197957932    0.74305505694154   -4.32876274298095
H         1.50121178854764    0.36305649923845   -4.31102330692777
H         0.43915891972005    1.62220049453920   -4.96629274942483
H        -0.15741255706298   -0.02676375825782   -4.74685825212796
C        -1.49735705908965    1.40552324778690   -2.96604061171346
H        -1.71923538460450    2.21516074028045   -3.65456195043449
H        -2.02774897470970    0.51118876249505   -3.28629334182437
H        -1.84528587693144    1.66276296563673   -1.96785029509941
C         0.82426295907118    2.20663490443641   -2.20009662443977
O         0.76524745677519    1.78048253468852   -0.82884420362871
C         2.30344869316321    2.19751176271402   -2.60089529104675
H         2.70560181816764    1.20006775781976   -2.44578443559877
H         2.44051167583031    2.51289381111463   -3.63120060598419
H         2.84594752155131    2.87599995095451   -1.94729722606664
C         0.26902095589073    3.62106220944064   -2.33314377159529
H        -0.72965393773623    3.69459117860772   -1.91631387752528
H         0.91388200481298    4.30316722543939   -1.78592385660881
H         0.25046452360508    3.91833622530188   -3.37821307785530
B         1.56356807985347    0.62759799088181    1.86113151645147
O         2.92326832790727    0.58315113564664    2.11168305494276
C         3.36331389124347    1.89146443802368    2.50517593506776
C         4.53157215877271    1.78825847876746    3.47820494761616
H         4.28087928335175    1.15400878295352    4.32122955799539
H         5.38386238182288    1.35115703049529    2.96555766408957
H         4.80575185575051    2.77683718454153    3.83469046966734
C         3.80428473609965    2.59178273705291    1.21595991294621
H         4.20327756294676    3.58276739189876    1.40837803350278
H         4.56653452157339    1.98214340576556    0.73840937777684
H         2.95431676933220    2.63902490770272    0.53975212530347
C         2.05652241516260    2.50681176844691    3.08869972540495
O         1.04318982680283    1.80704743065551    2.35004249536686
C         1.89900466037671    4.00914547838478    2.88995758201413
H         1.86480306303966    4.25241691991015    1.83410807975867
H         0.96689198475185    4.33328403433917    3.34402104142574
H         2.72359806354737    4.53563727949547    3.36142048332258
C         1.84790141944050    2.14584677642061    4.56433482459562
H         1.95312483096051    1.07103193740933    4.69281902614032
H         2.55178257092660    2.66970876641570    5.20277629208313
H         0.83583640323221    2.41994215815517    4.85204176625893
B         2.27820000000001   -1.33090000000002    0.17409999999999
O         2.90554422705924   -2.54997066738697    0.39637930616855
C         4.25948508074289   -2.48156971954523   -0.08349646705779
C         5.11648916727169   -2.06114535726927    1.11466505582455
H         4.75714222203463   -1.10347687573254    1.48333283575401
H         4.98632830160764   -2.79555251265737    1.90500129428783
H         6.16816821162711   -2.00236711514705    0.85307540311227
C         4.71255329660127   -3.84320581691079   -0.59707275550477
H         4.74506671920474   -4.54108548265613    0.23434369929001
H         5.70565825237887   -3.76277474831446   -1.02927410895471
H         4.02562512874809   -4.23164696550490   -1.34046507807416
C         4.16025050824527   -1.35944504525033   -1.15996041085679
O         3.06142877564500   -0.57325880377654   -0.67146631978550
C         5.40471137720883   -0.49282567661150   -1.31537577725059
H         6.25263870562668   -1.10571194684308   -1.60700536820618
H         5.22661881507485    0.25187528727611   -2.08589724527487
H         5.63027305600391    0.02353101544497   -0.38967866473114
C         3.73561856490178   -1.90159313067827   -2.53142867663338
H         2.84446603926486   -2.51394242220088   -2.42104086754114
H         3.48104316564948   -1.06172387126775   -3.17297590881496
H         4.53096597069922   -2.47408627267551   -2.99786989243750
H        -3.39166572800534   -3.97383125745316   -2.57512925936447
H        -5.18970342081299    1.47809399900071    1.30542595483372
C         0.23589999999997   -1.68140000000010    2.96029999999994
C        -0.87972596068137   -2.09848655690912    3.71414035908615
C         1.47910724249364   -1.82170969079480    3.62539343847620
C        -2.32729859526731   -1.92418117542395    3.32726286690670
C        -0.70098264669900   -2.64400477532603    4.98989919461348
C         1.64130352555970   -2.34289935876358    4.89248801578570
H         2.37247138917559   -1.53448394753364    3.09297069797591
C        -2.93663095113476   -2.91747190586842    2.38211994724300
H        -2.93143737034037   -1.98185972112549    4.23955132026047
H        -2.49657473156350   -0.92573223804355    2.93346637557276
C         0.53338096348024   -2.79967214691111    5.58224483848151
H        -1.57675726744733   -2.97563050898332    5.53257870080169
H         2.63094046077266   -2.43055858572166    5.31770260452479
N        -4.21171769514050   -2.67846545766203    2.08476779258260
C        -2.26521328054214   -4.03367404331066    1.89465201577364
H         0.62611772081148   -3.26324475287276    6.55354290675716
C        -4.85844679286531   -3.52854765736470    1.31007415345925
C        -2.94954625597511   -4.91934056290575    1.08008684336256
H        -1.23078442082317   -4.19483693543092    2.15384034624020
C        -4.28038434540565   -4.66980447203282    0.78009174462565
H        -5.89375065956109   -3.27568972143347    1.11577880257347
H        -2.45401305222328   -5.79426707291160    0.68582317396242
H        -4.85239666008137   -5.33808182558854    0.15592519931876
108
 energy: -154.741010560321 gnorm: 0.039083962070 xtb: 6.4.0 (f63f532)
N        -0.94018882711657   -2.07017137689834   -0.29729468026173
C        -2.20808697180541   -1.64166241777860   -0.42326566132694
C        -3.11742120503423   -2.31729740156742   -1.24498433674915
C        -2.71085342930969   -3.43282356284239   -1.94159446653887
C        -1.39482124176200   -3.86365631946384   -1.80050055049378
C        -0.56012347867429   -3.15008447315610   -0.96873153007356
H         0.46638056853188   -3.45171342752129   -0.81619711007572
H        -1.03463245059545   -4.73433976407670   -2.32219125501242
H        -4.13427620787290   -1.97588167964405   -1.33525004277953
C        -2.56415321567278   -0.46026517052127    0.34685892645250
N        -1.56774594844129    0.13092820223304    1.03792315907553
C        -1.85844275077706    1.18933269991601    1.79133188355500
C        -3.13116551166594    1.70521276587785    1.92567752472644
C        -4.17015746299566    1.10247888464089    1.22145159818414
C        -3.87681123867686    0.02066444990292    0.42144016770059
H        -4.67016319140845   -0.46995697133200   -0.11446477868432
H        -3.31339813154094    2.54066525293471    2.58062807036263
H        -1.02334021094338    1.61419774893597    2.32458357673298
Ir        0.42150000000001   -0.81650000000000    0.91330000000000
H         0.87260000000000   -2.23030000000000    1.54050000000000
B         0.49780776998704    0.44261093257649   -0.75559791019873
O         0.14097025712335   -0.01802895407091   -2.01427594302549
C        -0.00427587362871    1.09518851299607   -2.90604118245948
C         0.48097637321574    0.73558008538377   -4.30758658452436
H         1.49401102301906    0.35007163825706   -4.28694434737575
H         0.43936872549436    1.61581707934698   -4.94307146752268
H        -0.16634512946061   -0.03062800087657   -4.72546142445300
C        -1.50608673575654    1.41395736657432   -2.96163258149393
H        -1.71374178331493    2.22182364472440   -3.65583477951155
H        -2.03765907413793    0.52118978712874   -3.28352318759017
H        -1.86080614212239    1.67715725726143   -1.96763644316969
C         0.81646873215531    2.20927047259646   -2.18680155878814
O         0.76979402197439    1.78835677369575   -0.81722575736124
C         2.29320896726809    2.20375059106990   -2.60054886103201
H         2.69844510902953    1.20839044161118   -2.44095221982574
H         2.41792341109124    2.51212794600794   -3.63403392932833
H         2.83754154318163    2.88939462747652   -1.95632271072034
C         0.25774344044250    3.62284828863922   -2.32466679135473
H        -0.73820884748804    3.69935793494300   -1.90233866969502
H         0.90682163703197    4.30907857741954   -1.78797058201838
H         0.23300815433599    3.90800426243841   -3.37258432185352
B         1.56570659415700    0.63323335116715    1.86222353746952
O         2.92554957020121    0.59276288824453    2.09383933846368
C         3.36519897830142    1.89447737407640    2.50106385512770
C         4.53299614676965    1.78545391844648    3.47578953537260
H         4.28392865781301    1.14361967422052    4.31329999869930
H         5.38693472843090    1.35630297068737    2.95957671953936
H         4.80065505324912    2.77296886506604    3.83894675828698
C         3.80972372365413    2.60911653445733    1.21963600038552
H         4.20490559772033    3.59863730034423    1.42368447397114
H         4.57519229724205    2.00541771150330    0.73989905944016
H         2.96092138761637    2.65910898505906    0.54264049204038
C         2.05991668424086    2.50697269860659    3.09084956581248
O         1.04439096578280    1.80256439921849    2.36400983952256
C         1.90057115423443    4.01002732918983    2.89139462842915
H         1.85683822024969    4.25361609129006    1.83599781969343
H         0.97347839381733    4.33446052776724    3.35505068038669
H         2.73105132465355    4.53306214949698    3.35536694147253
C         1.86436207833206    2.15130736702932    4.57073508917984
H         1.97350710697331    1.07721368197088    4.69917464215984
H         2.57248556682811    2.67975033830297    5.19977600445818
H         0.85373463467015    2.42337825434628    4.86404091532543
B         2.27820000000002   -1.33090000000003    0.17409999999998
O         2.90820979191915   -2.54317709181267    0.40481787199459
C         4.25451644273203   -2.48016243526658   -0.08672974298230
C         5.12445170509607   -2.06223687476855    1.10432743870545
H         4.76737603069165   -1.10487947524006    1.47537383788264
H         4.99955001822927   -2.79756198137586    1.89421390369470
H         6.17278842881514   -2.00459805423986    0.83188480122317
C         4.70287696969367   -3.84327950899895   -0.60375509006896
H         4.74061996873573   -4.53969501860900    0.22827789513294
H         5.69301112443696   -3.75917690753647   -1.04083369568797
H         4.01228149804082   -4.23229245683081   -1.34320305003872
C         4.15402638887304   -1.35924362489795   -1.16408253760898
O         3.05034866377689   -0.57852666573190   -0.68276445337549
C         5.39863150327236   -0.49090180493008   -1.31536360325620
H         6.24514495183171   -1.10814497073886   -1.60049650509370
H         5.22407762224277    0.24978508522331   -2.09018362251304
H         5.62071343019541    0.02868161953974   -0.39089302990055
C         3.74134456854131   -1.90451199642846   -2.53910832797682
H         2.85088848813833   -2.51802282492534   -2.43328505257962
H         3.49156624469879   -1.06567856577655   -3.18363185157311
H         4.54300812989507   -2.47542241767452   -2.99528471055934
H        -3.39981564906028   -3.96362176928355   -2.57928444676069
H        -5.18259103931122    1.46592992779596    1.30656402125457
C         0.23589999999995   -1.68140000000016    2.96029999999992
C        -0.88223774991710   -2.09213780975687    3.71165325144895
C         1.47761974846999   -1.81548416330615    3.63124748826893
C        -2.32568620390834   -1.91511709510763    3.31377134885521
C        -0.70994401536180   -2.63142863541616    4.99103923784646
C         1.63327839470506   -2.32804085914385    4.90212659912037
H         2.37132740937191   -1.52857987980262    3.09938295313098
C        -2.92987670210994   -2.91536084466478    2.37320467948028
H        -2.93698749048419   -1.96127120547013    4.22218223957880
H        -2.48703878780933   -0.92018682373061    2.90795287552382
C         0.52173081406583   -2.78228238401879    5.58919668268627
H        -1.58850017765047   -2.95922784196232    5.53165818664276
H         2.62032790340112   -2.41049672053972    5.33458399016220
N        -4.20393984470852   -2.68123824807977    2.07008992028952
C        -2.25438172104180   -4.03349977270178    1.89479578592283
H         0.61107300585979   -3.23933021201932    6.56395595826973
C        -4.84772720198214   -3.53746505736787    1.30079131549150
C        -2.93513010606454   -4.92560948192456    1.08403967706854
H        -1.22077163900153   -4.19171057741555    2.15894559982420
C        -4.26612975236372   -4.68163194206330    0.77955374421920
H        -5.88363101891931   -3.28944863729085    1.10304413983534
H        -2.43687254665312   -5.80223687884321    0.69697954693399
H        -4.83542690258254   -5.35559532820627    0.15930762690140
108
 energy: -154.742227179455 gnorm: 0.038696042966 xtb: 6.4.0 (f63f532)
N        -0.92748892247426   -2.06785845877747   -0.31385514553599
C        -2.19201657369446   -1.62643531994064   -0.44713311277980
C        -3.10584405242979   -2.29447574086709   -1.27194389164954
C        -2.71134446808280   -3.41841581752919   -1.96114343317809
C        -1.39747865429516   -3.86023557553350   -1.81709256548506
C        -0.55661709581413   -3.15080698434767   -0.98664643292799
H         0.46814786067111   -3.46160355476458   -0.83724746549605
H        -1.04583614610851   -4.73658875637336   -2.33544641889960
H        -4.11763854249865   -1.93824352159458   -1.36730489507454
C        -2.54293177791907   -0.44378830371811    0.31925118423424