      -----------------------------------------------------------      
     |                   =====================                   |     
     |                           x T B                           |     
     |                   =====================                   |     
     |                         S. Grimme                         |     
     |          Mulliken Center for Theoretical Chemistry        |     
     |                    University of Bonn                     |     
      -----------------------------------------------------------      

   * xtb version 6.4.1 (1a32961) compiled by 'knkr256@seskscpg007.prim.scp' on 2021-10-19

   xtb is free software: you can redistribute it and/or modify it under
   the terms of the GNU Lesser General Public License as published by
   the Free Software Foundation, either version 3 of the License, or
   (at your option) any later version.
   
   xtb is distributed in the hope that it will be useful,
   but WITHOUT ANY WARRANTY; without even the implied warranty of
   MERCHANTABILITY or FITNESS FOR A PARTICULAR PURPOSE.  See the
   GNU Lesser General Public License for more details.
   
   Cite this work as:
   * C. Bannwarth, E. Caldeweyher, S. Ehlert, A. Hansen, P. Pracht,
     J. Seibert, S. Spicher, S. Grimme, WIREs Comput. Mol. Sci., 2020, 11,
     e01493. DOI: 10.1002/wcms.1493
   
   for GFN2-xTB:
   * C. Bannwarth, S. Ehlert and S. Grimme., J. Chem. Theory Comput., 2019,
     15, 1652-1671. DOI: 10.1021/acs.jctc.8b01176
   for GFN1-xTB:
   * S. Grimme, C. Bannwarth, P. Shushkov, J. Chem. Theory Comput., 2017,
     13, 1989-2009. DOI: 10.1021/acs.jctc.7b00118
   for GFN0-xTB:
   * P. Pracht, E. Caldeweyher, S. Ehlert, S. Grimme, ChemRxiv, 2019, preprint.
     DOI: 10.26434/chemrxiv.8326202.v1
   for GFN-FF:
   * S. Spicher and S. Grimme, Angew. Chem. Int. Ed., 2020, 59, 15665-15673.
     DOI: 10.1002/anie.202004239
   
   for ALPB and GBSA implicit solvation:
   * S. Ehlert, M. Stahn, S. Spicher, S. Grimme, J. Chem. Theory Comput.,
     2021, 17, 4250-4261. DOI: 10.1021/acs.jctc.1c00471
   
   for DFT-D4:
   * E. Caldeweyher, C. Bannwarth and S. Grimme, J. Chem. Phys., 2017,
     147, 034112. DOI: 10.1063/1.4993215
   * E. Caldeweyher, S. Ehlert, A. Hansen, H. Neugebauer, S. Spicher,
     C. Bannwarth and S. Grimme, J. Chem. Phys., 2019, 150, 154122.
     DOI: 10.1063/1.5090222
   * E. Caldeweyher, J.-M. Mewes, S. Ehlert and S. Grimme, Phys. Chem. Chem. Phys.
     2020, 22, 8499-8512. DOI: 10.1039/D0CP00502A
   
   for sTDA-xTB:
   * S. Grimme and C. Bannwarth, J. Chem. Phys., 2016, 145, 054103.
     DOI: 10.1063/1.4959605
   
   in the mass-spec context:
   * V. Asgeirsson, C. Bauer and S. Grimme, Chem. Sci., 2017, 8, 4879.
     DOI: 10.1039/c7sc00601b
   * J. Koopman and S. Grimme, ACS Omega 2019, 4, 12, 15120-15133.
     DOI: 10.1021/acsomega.9b02011
   
   for metadynamics refer to:
   * S. Grimme, J. Chem. Theory Comput., 2019, 155, 2847-2862
     DOI: 10.1021/acs.jctc.9b00143
   
   for SPH calculations refer to:
   * S. Spicher and S. Grimme, J. Chem. Theory Comput., 2021, 17, 1701-1714
     DOI: 10.1021/acs.jctc.0c01306
   
   with help from (in alphabetical order)
   P. Atkinson, C. Bannwarth, F. Bohle, G. Brandenburg, E. Caldeweyher
   M. Checinski, S. Dohm, S. Ehlert, S. Ehrlich, I. Gerasimov, J. Koopman
   C. Lavigne, S. Lehtola, F. März, M. Müller, F. Musil, H. Neugebauer
   J. Pisarek, C. Plett, P. Pracht, J. Seibert, P. Shushkov, S. Spicher
   M. Stahn, M. Steiner, T. Strunk, J. Stückrath, T. Rose, and J. Unsleber
   
 * started run on 2022/01/14 at 14:46:22.918     

           -------------------------------------------------
          |                Calculation Setup                |
           -------------------------------------------------

          program call               : xtb xtbopt.xyz --sp --alpb thf -P 6
          hostname                   : seskscpg007.prim.scp
          coordinate file            : xtbopt.xyz
          omp threads                :                     6
          number of atoms            :                   118
          number of electrons        :                   316
          charge                     :                     0
          spin                       :                   0.0
          first test random number   :      0.78659421944083

   ID    Z sym.   atoms
    1    7 N      1, 11, 95
    2    6 C      2-6, 10, 12-15, 23, 24, 28, 32, 34, 38, 44, 45, 49, 53, 55,
                  59, 65, 66, 70, 74, 76, 80, 86-91, 93, 94, 96, 98, 99, 101,
                  103, 109-111
    3    1 H      7-9, 16-18, 20, 25-27, 29-31, 35-37, 39-41, 46-48, 50-52,
                  56-58, 60-62, 67-69, 71-73, 77-79, 81-85, 92, 97, 100, 102,
                  104, 105, 108, 112-118
    4   77 Ir     19
    5    5 B      21, 42, 63
    6    8 O      22, 33, 43, 54, 64, 75, 106, 107

molecular fragmentation (1/2 indicates fragments):
111111111111111111111111111111111111111111111111111111111111111111111111
1111111111111222222222222222222222222222222222
# atoms in fragment 1/2:    85    33
 fragment masses (1/2) :      730.32      252.29
CMA distance (Bohr)    :  11.923
constraining FC (au)   :  0.0500

           -------------------------------------------------
          |                 G F N 2 - x T B                 |
           -------------------------------------------------

        Reference                      10.1021/acs.jctc.8b01176
      * Hamiltonian:
        H0-scaling (s, p, d)           1.850000    2.230000    2.230000
        zeta-weighting                 0.500000
      * Dispersion:
        s8                             2.700000
        a1                             0.520000
        a2                             5.000000
        s9                             5.000000
      * Repulsion:
        kExp                           1.500000    1.000000
        rExp                           1.000000
      * Coulomb:
        alpha                          2.000000
        third order                    shell-resolved
        anisotropic                    true
        a3                             3.000000
        a5                             4.000000
        cn-shift                       1.200000
        cn-exp                         4.000000
        max-rad                        5.000000

      * Solvation model:               ALPB
        Solvent                        thf
        Parameter file                 internal GFN2-xTB/ALPB
        Dielectric constant                7.6000E+00
        Reference state                gsolv [1 M gas/solution]
        Free energy shift                  5.3248E-03 Eh       3.3414E+00 kcal/mol
        Temperature                        2.9815E+02 K
        Density                            8.8300E-01 kg/L
        Solvent mass                       7.2106E+01 g/mol
        Interaction kernel             P16
        Born radius scaling (c1)           1.7311E+00
        Born radii integrator          GBOBC
        Born offset                        0.0000E+00 a0       0.0000E+00 AA
        H-bond correction              true
        Ion screening                  false
        Surface tension                    1.0000E-05 Eh       1.5569E+01 dyn/cm
        Grid points                               230 per atom
q/qsh data taken from xtbrestart
CAMM data taken from xtbrestart

          ...................................................
          :                      SETUP                      :
          :.................................................:
          :  # basis functions                 301          :
          :  # atomic orbitals                 300          :
          :  # shells                          178          :
          :  # electrons                       316          :
          :  max. iterations                   250          :
          :  Hamiltonian                  GFN2-xTB          :
          :  restarted?                       true          :
          :  GBSA solvation                   true          :
          :  PC potential                    false          :
          :  electronic temp.          300.0000000     K    :
          :  accuracy                    1.0000000          :
          :  -> integral cutoff          0.2500000E+02      :
          :  -> integral neglect         0.1000000E-07      :
          :  -> SCF convergence          0.1000000E-05 Eh   :
          :  -> wf. convergence          0.1000000E-03 e    :
          :  Broyden damping             0.4000000          :
          ...................................................

 iter      E             dE          RMSdq      gap      omega  full diag
   1   -175.8995514 -0.175900E+03  0.602E-05    0.92       0.0  T
   2   -175.8995514  0.262048E-10  0.502E-05    0.92     183.5  T
   3   -175.8995514 -0.135003E-10  0.429E-05    0.92     214.5  T

   *** convergence criteria satisfied after 3 iterations ***

         #    Occupation            Energy/Eh            Energy/eV
      -------------------------------------------------------------
         1        2.0000           -0.7470146             -20.3273
       ...           ...                  ...                  ...
       152        2.0000           -0.3746144             -10.1938
       153        2.0000           -0.3528934              -9.6027
       154        2.0000           -0.3337656              -9.0822
       155        2.0000           -0.3223219              -8.7708
       156        2.0000           -0.3162367              -8.6052
       157        2.0000           -0.3085500              -8.3961
       158        2.0000           -0.3037893              -8.2665 (HOMO)
       159                         -0.2700288              -7.3479 (LUMO)
       160                         -0.2490354              -6.7766
       161                         -0.2450620              -6.6685
       162                         -0.2408505              -6.5539
       163                         -0.2295950              -6.2476
       ...                                ...                  ...
       300                          3.7649071             102.4483
      -------------------------------------------------------------
                  HL-Gap            0.0337605 Eh            0.9187 eV
             Fermi-level           -0.2869059 Eh           -7.8071 eV

 SCC (total)                   0 d,  0 h,  0 min,  0.119 sec
 SCC setup                      ...        0 min,  0.003 sec (  2.333%)
 Dispersion                     ...        0 min,  0.003 sec (  2.587%)
 classical contributions        ...        0 min,  0.000 sec (  0.167%)
 integral evaluation            ...        0 min,  0.013 sec ( 11.169%)
 iterations                     ...        0 min,  0.044 sec ( 37.025%)
 molecular gradient             ...        0 min,  0.055 sec ( 45.958%)
 printout                       ...        0 min,  0.001 sec (  0.706%)

         :::::::::::::::::::::::::::::::::::::::::::::::::::::
         ::                     SUMMARY                     ::
         :::::::::::::::::::::::::::::::::::::::::::::::::::::
         :: total energy            -173.595662964270 Eh    ::
         :: total w/o Gsasa/hb      -173.549164429558 Eh    ::
         :: gradient norm              0.027171603552 Eh/a0 ::
         :: HOMO-LUMO gap              0.918670273464 eV    ::
         ::.................................................::
         :: SCC energy              -175.899551417010 Eh    ::
         :: -> isotropic ES            0.294011945638 Eh    ::
         :: -> anisotropic ES          0.010312884749 Eh    ::
         :: -> anisotropic XC          0.057507643744 Eh    ::
         :: -> dispersion             -0.174541205821 Eh    ::
         :: -> Gsolv                  -0.060696634477 Eh    ::
         ::    -> Gelec               -0.014198099765 Eh    ::
         ::    -> Gsasa               -0.048636792711 Eh    ::
         ::    -> Ghb                 -0.003186557446 Eh    ::
         ::    -> Gshift               0.005324815444 Eh    ::
         :: repulsion energy           2.293516009812 Eh    ::
         :: add. restraining           0.000000000000 Eh    ::
         :: total charge               0.000000000256 e     ::
         :::::::::::::::::::::::::::::::::::::::::::::::::::::

           -------------------------------------------------
          |                Property Printout                |
           -------------------------------------------------

    * Orbital Energies and Occupations

         #    Occupation            Energy/Eh            Energy/eV
      -------------------------------------------------------------
         1        2.0000           -0.7470146             -20.3273
       ...           ...                  ...                  ...
       146        2.0000           -0.3917142             -10.6591
       147        2.0000           -0.3886056             -10.5745
       148        2.0000           -0.3861506             -10.5077
       149        2.0000           -0.3848329             -10.4718
       150        2.0000           -0.3792272             -10.3193
       151        2.0000           -0.3764965             -10.2450
       152        2.0000           -0.3746144             -10.1938
       153        2.0000           -0.3528934              -9.6027
       154        2.0000           -0.3337656              -9.0822
       155        2.0000           -0.3223219              -8.7708
       156        2.0000           -0.3162367              -8.6052
       157        2.0000           -0.3085500              -8.3961
       158        2.0000           -0.3037893              -8.2665 (HOMO)
       159                         -0.2700288              -7.3479 (LUMO)
       160                         -0.2490354              -6.7766
       161                         -0.2450620              -6.6685
       162                         -0.2408505              -6.5539
       163                         -0.2295950              -6.2476
       164                         -0.2172657              -5.9121
       165                         -0.2054903              -5.5917
       166                         -0.2005256              -5.4566
       167                         -0.1847321              -5.0268
       168                         -0.1717486              -4.6735
       169                         -0.1458376              -3.9684
       ...                                ...                  ...
       300                          3.7649071             102.4483
      -------------------------------------------------------------
                  HL-Gap            0.0337605 Eh            0.9187 eV
             Fermi-level           -0.2869059 Eh           -7.8071 eV

     #   Z          covCN         q      C6AA      α(0)
     1   7 N        2.465    -0.136    24.022     7.278
     2   6 C        2.958     0.082    26.168     8.391
     3   6 C        2.919    -0.041    29.008     8.832
     4   6 C        2.923    -0.024    28.605     8.771
     5   6 C        2.915    -0.045    29.123     8.849
     6   6 C        2.892     0.042    27.061     8.529
     7   1 H        0.926     0.068     2.104     2.268
     8   1 H        0.926     0.052     2.298     2.370
     9   1 H        0.926     0.046     2.373     2.409
    10   6 C        2.961     0.080    26.209     8.397
    11   7 N        2.561    -0.119    23.617     7.217
    12   6 C        2.896     0.051    26.859     8.497
    13   6 C        2.916    -0.045    29.122     8.849
    14   6 C        2.924    -0.022    28.565     8.765
    15   6 C        2.919    -0.045    29.126     8.850
    16   1 H        0.926     0.048     2.341     2.393
    17   1 H        0.926     0.043     2.407     2.426
    18   1 H        0.926     0.056     2.245     2.343
    19  77 Ir       5.858    -0.148   387.249    36.391
    20   1 H        0.977     0.081     1.968     2.192
    21   5 B        2.654     0.405    15.892     6.716
    22   8 O        1.638    -0.408    21.010     6.187
    23   6 C        3.836     0.131    18.440     6.109
    24   6 C        3.755    -0.119    22.839     6.814
    25   1 H        0.925     0.048     2.349     2.397
    26   1 H        0.925     0.047     2.357     2.401
    27   1 H        0.925     0.051     2.313     2.379
    28   6 C        3.755    -0.115    22.750     6.801
    29   1 H        0.925     0.047     2.358     2.401
    30   1 H        0.925     0.044     2.401     2.423
    31   1 H        0.925     0.041     2.436     2.441
    32   6 C        3.838     0.131    18.429     6.107
    33   8 O        1.637    -0.404    20.932     6.176
    34   6 C        3.755    -0.117    22.801     6.809
    35   1 H        0.925     0.039     2.459     2.452
    36   1 H        0.925     0.049     2.332     2.388
    37   1 H        0.925     0.053     2.287     2.365
    38   6 C        3.755    -0.119    22.841     6.815
    39   1 H        0.925     0.045     2.389     2.417
    40   1 H        0.925     0.056     2.241     2.341
    41   1 H        0.925     0.047     2.356     2.400
    42   5 B        2.660     0.410    15.817     6.695
    43   8 O        1.638    -0.366    20.202     6.067
    44   6 C        3.837     0.127    18.497     6.119
    45   6 C        3.755    -0.128    23.016     6.841
    46   1 H        0.925     0.055     2.254     2.348
    47   1 H        0.925     0.061     2.185     2.312
    48   1 H        0.925     0.051     2.312     2.378
    49   6 C        3.755    -0.123    22.923     6.827
    50   1 H        0.925     0.051     2.307     2.375
    51   1 H        0.925     0.057     2.236     2.339
    52   1 H        0.925     0.045     2.386     2.415
    53   6 C        3.834     0.129    18.465     6.114
    54   8 O        1.637    -0.400    20.849     6.164
    55   6 C        3.755    -0.119    22.845     6.815
    56   1 H        0.925     0.044     2.391     2.418
    57   1 H        0.925     0.054     2.275     2.359
    58   1 H        0.925     0.051     2.307     2.375
    59   6 C        3.755    -0.123    22.911     6.825
    60   1 H        0.925     0.044     2.399     2.422
    61   1 H        0.925     0.054     2.272     2.357
    62   1 H        0.925     0.047     2.356     2.400
    63   5 B        2.636     0.394    16.099     6.773
    64   8 O        1.638    -0.367    20.231     6.071
    65   6 C        3.842     0.125    18.515     6.121
    66   6 C        3.755    -0.124    22.929     6.828
    67   1 H        0.925     0.048     2.342     2.393
    68   1 H        0.925     0.054     2.271     2.356
    69   1 H        0.925     0.050     2.319     2.381
    70   6 C        3.755    -0.131    23.065     6.848
    71   1 H        0.925     0.061     2.184     2.311
    72   1 H        0.925     0.050     2.321     2.382
    73   1 H        0.925     0.056     2.245     2.343
    74   6 C        3.832     0.126    18.513     6.122
    75   8 O        1.637    -0.382    20.518     6.114
    76   6 C        3.755    -0.124    22.943     6.830
    77   1 H        0.925     0.050     2.326     2.385
    78   1 H        0.925     0.055     2.253     2.347
    79   1 H        0.925     0.052     2.295     2.369
    80   6 C        3.755    -0.126    22.973     6.834
    81   1 H        0.925     0.045     2.389     2.417
    82   1 H        0.925     0.051     2.303     2.373
    83   1 H        0.925     0.054     2.276     2.359
    84   1 H        0.926     0.049     2.327     2.386
    85   1 H        0.926     0.049     2.332     2.388
    86   6 C        2.824    -0.024    28.593     8.762
    87   6 C        3.048    -0.015    28.328     8.729
    88   6 C        2.924    -0.048    29.203     8.862
    89   6 C        3.065    -0.008    28.157     8.701
    90   6 C        3.052     0.049    26.844     8.497
    91   6 C        2.924    -0.037    28.925     8.820
    92   1 H        0.926     0.065     2.141     2.288
    93   6 C        3.032     0.049    26.862     8.501
    94   6 C        2.915    -0.041    29.007     8.832
    95   7 N        2.784    -0.086    22.911     7.109
    96   6 C        2.909    -0.058    29.437     8.897
    97   1 H        0.926     0.041     2.441     2.443
    98   6 C        2.912    -0.052    29.298     8.876
    99   6 C        2.919    -0.042    29.044     8.838
   100   1 H        0.926     0.057     2.238     2.340
   101   6 C        2.654     0.406    20.155     7.345
   102   1 H        0.926     0.054     2.271     2.357
   103   6 C        2.924    -0.040    28.999     8.831
   104   1 H        0.926     0.053     2.280     2.361
   105   1 H        0.926     0.036     2.506     2.476
   106   8 O        0.857    -0.494    23.649     6.520
   107   8 O        1.704    -0.298    18.953     5.878
   108   1 H        0.926     0.043     2.406     2.425
   109   6 C        3.743     0.124    18.634     6.158
   110   6 C        3.752    -0.125    22.961     6.833
   111   6 C        3.753    -0.129    23.045     6.845
   112   1 H        0.924     0.045     2.384     2.414
   113   1 H        0.925     0.060     2.205     2.322
   114   1 H        0.925     0.051     2.305     2.374
   115   1 H        0.925     0.063     2.159     2.298
   116   1 H        0.925     0.065     2.145     2.290
   117   1 H        0.925     0.066     2.126     2.280
   118   1 H        0.925     0.060     2.204     2.322

 Mol. C6AA /au·bohr⁶  :     151869.150295
 Mol. C8AA /au·bohr⁸  :    3980054.813107
 Mol. α(0) /au        :        604.878731


Wiberg/Mayer (AO) data.
largest (>0.10) Wiberg bond orders for each atom

 ---------------------------------------------------------------------------
     #   Z sym  total        # sym  WBO       # sym  WBO       # sym  WBO
 ---------------------------------------------------------------------------
     1   7 N    3.368 --     6 C    1.381     2 C    1.308    19 Ir   0.416
     2   6 C    3.978 --     3 C    1.361     1 N    1.308    10 C    1.078
     3   6 C    3.989 --     4 C    1.472     2 C    1.361     9 H    0.964
                             6 C    0.105
     4   6 C    3.984 --     3 C    1.472     5 C    1.388    84 H    0.969
     5   6 C    3.982 --     6 C    1.460     4 C    1.388     8 H    0.969
     6   6 C    3.974 --     5 C    1.460     1 N    1.381     7 H    0.953
                             3 C    0.105
     7   1 H    0.995 --     6 C    0.953
     8   1 H    0.997 --     5 C    0.969
     9   1 H    0.997 --     3 C    0.964
    10   6 C    3.979 --    15 C    1.351    11 N    1.320     2 C    1.078
    11   7 N    3.402 --    12 C    1.393    10 C    1.320    19 Ir   0.433
    12   6 C    3.978 --    13 C    1.454    11 N    1.393    18 H    0.956
                            15 C    0.106
    13   6 C    3.983 --    12 C    1.454    14 C    1.387    17 H    0.970
    14   6 C    3.984 --    15 C    1.480    13 C    1.387    85 H    0.969
    15   6 C    3.988 --    14 C    1.480    10 C    1.351    16 H    0.964
                            12 C    0.106
    16   1 H    0.997 --    15 C    0.964
    17   1 H    0.997 --    13 C    0.970
    18   1 H    0.996 --    12 C    0.956
    19  77 Ir   5.114 --    63 B    0.878    42 B    0.803    21 B    0.691
                            86 C    0.613    20 H    0.521    11 N    0.433
                             1 N    0.416
    20   1 H    0.990 --    19 Ir   0.521    86 C    0.348
    21   5 B    3.278 --    33 O    1.109    22 O    1.095    19 Ir   0.691
                            42 B    0.145
    22   8 O    2.194 --    21 B    1.095    23 C    0.940
    23   6 C    3.942 --    24 C    0.996    28 C    0.991    32 C    0.940
                            22 O    0.940
    24   6 C    3.994 --    23 C    0.996    26 H    0.984    27 H    0.983
                            25 H    0.983
    25   1 H    0.998 --    24 C    0.983
    26   1 H    0.997 --    24 C    0.984
    27   1 H    0.997 --    24 C    0.983
    28   6 C    3.995 --    23 C    0.991    29 H    0.984    30 H    0.984
                            31 H    0.982
    29   1 H    0.997 --    28 C    0.984
    30   1 H    0.998 --    28 C    0.984
    31   1 H    0.998 --    28 C    0.982
    32   6 C    3.940 --    38 C    0.997    34 C    0.990    33 O    0.941
                            23 C    0.940
    33   8 O    2.204 --    21 B    1.109    32 C    0.941
    34   6 C    3.995 --    32 C    0.990    35 H    0.985    36 H    0.984
                            37 H    0.982
    35   1 H    0.998 --    34 C    0.985
    36   1 H    0.997 --    34 C    0.984
    37   1 H    0.997 --    34 C    0.982
    38   6 C    3.994 --    32 C    0.997    41 H    0.983    40 H    0.983
                            39 H    0.981
    39   1 H    0.998 --    38 C    0.981
    40   1 H    0.997 --    38 C    0.983
    41   1 H    0.997 --    38 C    0.983
    42   5 B    3.351 --    43 O    1.141    54 O    1.089    19 Ir   0.803
                            21 B    0.145
    43   8 O    2.248 --    42 B    1.141    44 C    0.936
    44   6 C    3.935 --    45 C    0.996    49 C    0.991    53 C    0.937
                            43 O    0.936
    45   6 C    3.992 --    44 C    0.996    48 H    0.983    46 H    0.982
                            47 H    0.982
    46   1 H    0.997 --    45 C    0.982
    47   1 H    0.996 --    45 C    0.982
    48   1 H    0.996 --    45 C    0.983
    49   6 C    3.993 --    44 C    0.991    50 H    0.983    52 H    0.981
                            51 H    0.981
    50   1 H    0.996 --    49 C    0.983
    51   1 H    0.996 --    49 C    0.981
    52   1 H    0.998 --    49 C    0.981
    53   6 C    3.937 --    55 C    0.997    59 C    0.991    44 C    0.937
                            54 O    0.937
    54   8 O    2.205 --    42 B    1.089    53 C    0.937
    55   6 C    3.993 --    53 C    0.997    58 H    0.983    57 H    0.983
                            56 H    0.981
    56   1 H    0.998 --    55 C    0.981
    57   1 H    0.997 --    55 C    0.983
    58   1 H    0.996 --    55 C    0.983
    59   6 C    3.994 --    53 C    0.991    62 H    0.983    61 H    0.983
                            60 H    0.980
    60   1 H    0.998 --    59 C    0.980
    61   1 H    0.996 --    59 C    0.983
    62   1 H    0.997 --    59 C    0.983
    63   5 B    3.360 --    64 O    1.129    75 O    1.100    19 Ir   0.878
    64   8 O    2.241 --    63 B    1.129    65 C    0.939
    65   6 C    3.938 --    70 C    0.997    66 C    0.991    64 O    0.939
                            74 C    0.938
    66   6 C    3.994 --    65 C    0.991    69 H    0.984    67 H    0.983
                            68 H    0.982
    67   1 H    0.998 --    66 C    0.983
    68   1 H    0.997 --    66 C    0.982
    69   1 H    0.997 --    66 C    0.984
    70   6 C    3.992 --    65 C    0.997    72 H    0.983    73 H    0.982
                            71 H    0.982
    71   1 H    0.996 --    70 C    0.982
    72   1 H    0.996 --    70 C    0.983
    73   1 H    0.997 --    70 C    0.982
    74   6 C    3.938 --    76 C    0.996    80 C    0.991    65 C    0.938
                            75 O    0.938
    75   8 O    2.224 --    63 B    1.100    74 C    0.938
    76   6 C    3.993 --    74 C    0.996    77 H    0.983    78 H    0.983
                            79 H    0.981
    77   1 H    0.996 --    76 C    0.983
    78   1 H    0.997 --    76 C    0.983
    79   1 H    0.997 --    76 C    0.981
    80   6 C    3.994 --    74 C    0.991    81 H    0.984    83 H    0.983
                            82 H    0.983
    81   1 H    0.998 --    80 C    0.984
    82   1 H    0.997 --    80 C    0.983
    83   1 H    0.996 --    80 C    0.983
    84   1 H    0.997 --     4 C    0.969
    85   1 H    0.996 --    14 C    0.969
    86   6 C    3.945 --    88 C    1.384    87 C    1.332    19 Ir   0.613
                            20 H    0.348
    87   6 C    3.981 --    86 C    1.332    90 C    1.276    89 C    1.119
    88   6 C    3.983 --    91 C    1.436    86 C    1.384    92 H    0.957
    89   6 C    3.985 --    94 C    1.374    93 C    1.285    87 C    1.119
    90   6 C    3.942 --    96 C    1.402    87 C    1.276    95 N    1.046
    91   6 C    3.968 --    88 C    1.436    96 C    1.415    97 H    0.968
    92   1 H    0.995 --    88 C    0.957
    93   6 C    3.947 --    98 C    1.394    89 C    1.285    95 N    1.058
    94   6 C    3.979 --    99 C    1.455    89 C    1.374   100 H    0.952
                            98 C    0.104
    95   7 N    3.573 --   101 C    1.137    93 C    1.058    90 C    1.046
                           106 O    0.117
    96   6 C    3.981 --    91 C    1.415    90 C    1.402   102 H    0.963
    97   1 H    0.998 --    91 C    0.968
    98   6 C    3.985 --   103 C    1.439    93 C    1.394   104 H    0.963
                            94 C    0.104
    99   6 C    3.984 --    94 C    1.455   103 C    1.420   105 H    0.971
   100   1 H    0.996 --    94 C    0.952
   101   6 C    3.941 --   106 O    1.612    95 N    1.137   107 O    1.104
   102   1 H    0.995 --    96 C    0.963
   103   6 C    3.966 --    98 C    1.439    99 C    1.420   108 H    0.971
   104   1 H    0.997 --    98 C    0.963
   105   1 H    0.998 --    99 C    0.971
   106   8 O    1.950 --   101 C    1.612   107 O    0.141    95 N    0.117
   107   8 O    2.264 --   101 C    1.104   109 C    0.903   106 O    0.141
   108   1 H    0.998 --   103 C    0.971
   109   6 C    3.910 --   111 C    1.007   110 C    1.004   112 H    0.962
                           107 O    0.903
   110   6 C    3.991 --   109 C    1.004   114 H    0.985   113 H    0.984
                           115 H    0.982
   111   6 C    3.989 --   109 C    1.007   118 H    0.984   116 H    0.983
                           117 H    0.981
   112   1 H    0.998 --   109 C    0.962
   113   1 H    0.996 --   110 C    0.984
   114   1 H    0.997 --   110 C    0.985
   115   1 H    0.995 --   110 C    0.982
   116   1 H    0.996 --   111 C    0.983
   117   1 H    0.995 --   111 C    0.981
   118   1 H    0.996 --   111 C    0.984
 ---------------------------------------------------------------------------

Topologies differ in total number of bonds
Writing topology from bond orders to xtbtopo.mol

molecular dipole:
                 x           y           z       tot (Debye)
 q only:       -0.190       0.434      -1.911
   full:       -1.356       0.950      -2.097       6.791
molecular quadrupole (traceless):
                xx          xy          yy          xz          yz          zz
 q only:       31.727       9.996      -2.376     -11.059      12.432     -29.350
  q+dip:       32.877      11.827     -10.311     -14.431      15.216     -22.566
   full:       28.282      11.680      -2.070     -15.249      12.213     -26.212


           -------------------------------------------------
          | TOTAL ENERGY             -173.595662964270 Eh   |
          | GRADIENT NORM               0.027171603552 Eh/α |
          | HOMO-LUMO GAP               0.918670273464 eV   |
           -------------------------------------------------

------------------------------------------------------------------------
 * finished run on 2022/01/14 at 14:46:23.074     
------------------------------------------------------------------------
 total:
 * wall-time:     0 d,  0 h,  0 min,  0.157 sec
 *  cpu-time:     0 d,  0 h,  0 min,  0.914 sec
 * ratio c/w:     5.836 speedup
 SCF:
 * wall-time:     0 d,  0 h,  0 min,  0.121 sec
 *  cpu-time:     0 d,  0 h,  0 min,  0.719 sec
 * ratio c/w:     5.965 speedup

