111
 energy: -157.909651245971 gnorm: 0.000713538126 xtb: 6.4.0 (f63f532)
N        -0.96510000000000   -2.11530000000001   -0.24089999999999
C        -2.24699999999999   -1.69840000000000   -0.36219999999998
C        -3.14040000000000   -2.36819999999999   -1.21199999999999
C        -2.70220000000000   -3.47560000000001   -1.93050000000001
C        -1.37780000000001   -3.89880000000000   -1.78759999999999
C        -0.54290000000001   -3.18670000000001   -0.93510000000003
H         0.49810000000001   -3.45630000000000   -0.78940000000000
H        -0.99570000000000   -4.76030000000001   -2.32770000000000
H        -4.16500000000001   -2.02890000000000   -1.31830000000001
C        -2.62130000000000   -0.50950000000000    0.44100000000001
N        -1.62600000000000    0.07330000000000    1.16020000000000
C        -1.89679999999999    1.15239999999999    1.91690000000000
C        -3.17229999999999    1.70330000000000    1.99649999999999
C        -4.20510000000000    1.11740000000001    1.26269999999998
C        -3.92610000000000    0.00250000000000    0.47820000000001
H        -4.71960000000000   -0.46420000000000   -0.09520000000000
H        -3.34630000000000    2.57510000000000    2.62069999999999
H        -1.04450000000000    1.57420000000000    2.43690000000000
Ir        0.42150000000000   -0.81650000000000    0.91330000000000
H         0.87260000000000   -2.23030000000000    1.54050000000000
B         0.50670000000000    0.41560000000000   -0.81540000000000
O         0.19500000000000   -0.04699999999998   -2.09150000000001
C         0.00650000000001    1.10039999999998   -2.95430000000001
C         0.49020000000003    0.74740000000003   -4.35780000000000
H         1.51609999999999    0.37379999999999   -4.33700000000000
H         0.44730000000001    1.62239999999998   -5.01670000000000
H        -0.14739999999999   -0.03390000000001   -4.78429999999999
C        -1.50119999999997    1.39559999999996   -2.96670000000001
H        -1.75369999999999    2.21460000000000   -3.64850000000000
H        -2.03200000000000    0.49449999999999   -3.28930000000000
H        -1.85170000000000    1.65210000000000   -1.96220000000000
C         0.84230000000001    2.20670000000001   -2.22040000000002
O         0.75200000000000    1.78259999999999   -0.83690000000001
C         2.32930000000001    2.18619999999997   -2.59899999999999
H         2.74130000000000    1.18499999999999   -2.45750000000001
H         2.48869999999999    2.51300000000000   -3.63180000000001
H         2.87200000000000    2.86270000000002   -1.93199999999999
C         0.28440000000002    3.62290000000000   -2.33660000000001
H        -0.72650000000001    3.69040000000000   -1.92910000000002
H         0.92130000000000    4.31480000000000   -1.77610000000001
H         0.26430000000000    3.94809999999999   -3.38320000000002
B         1.56300000000000    0.60959999999999    1.84840000000000
O         2.92780000000000    0.55230000000001    2.15020000000000
C         3.36330000000000    1.88660000000000    2.50259999999999
C         4.53140000000000    1.78590000000000    3.47739999999999
H         4.27910000000000    1.16090000000002    4.33690000000000
H         5.39390000000000    1.33790000000000    2.97340000000001
H         4.82390000000000    2.77870000000001    3.83820000000001
C         3.79700000000000    2.56850000000000    1.19669999999997
H         4.20020000000000    3.57090000000000    1.37680000000000
H         4.56740000000000    1.95560000000000    0.72110000000000
H         2.95240000000000    2.63260000000000    0.50540000000000
C         2.05040000000000    2.50089999999999    3.09319999999999
O         1.03750000000000    1.81619999999999    2.31910000000000
C         1.89100000000000    4.00450000000001    2.88649999999997
H         1.87290000000000    4.25440000000000    1.82410000000000
H         0.94939999999999    4.34260000000000    3.33169999999999
H         2.71080000000001    4.55150000000001    3.36630000000000
C         1.82469999999999    2.13199999999997    4.56520000000001
H         1.92610000000000    1.05330000000000    4.71320000000000
H         2.52609999999998    2.65279999999999    5.22540000000000
H         0.80630000000000    2.41580000000000    4.84900000000000
B         2.27820000000001   -1.33090000000000    0.17410000000000
O         2.89460000000000   -2.57740000000000    0.38450000000001
C         4.26929999999999   -2.48199999999999   -0.07210000000000
C         5.10900000000000   -2.05380000000000    1.14010000000001
H         4.76350000000000   -1.08739999999999    1.51750000000000
H         4.98050000000000   -2.79470000000000    1.93590000000001
H         6.17420000000000   -1.99290000000000    0.89300000000001
C         4.71950000000001   -3.84660000000000   -0.58469999999999
H         4.75280000000000   -4.56130000000000    0.24420000000001
H         5.72330000000000   -3.78370000000000   -1.02009999999999
H         4.03500000000000   -4.23600000000000   -1.34170000000000
C         4.16439999999999   -1.36220000000001   -1.16300000000000
O         3.08520000000002   -0.55029999999999   -0.65400000000000
C         5.40720000000001   -0.48870000000001   -1.31549999999999
H         6.27320000000001   -1.09010000000001   -1.61530000000000
H         5.23300000000001    0.26929999999999   -2.08590000000000
H         5.64270000000000    0.02649999999999   -0.38240000000000
C         3.71799999999999   -1.89829999999999   -2.53110000000000
H         2.82530000000000   -2.52160000000000   -2.42740000000000
H         3.46090000000001   -1.05250000000000   -3.17549999999999
H         4.50570000000000   -2.48290000000000   -3.01789999999999
H        -3.38499999999999   -4.00130000000001   -2.59310000000000
H        -5.21400000000000    1.52079999999999    1.29960000000000
C         0.23590000000000   -1.68139999999999    2.96030000000002
C        -1.01620433930393   -2.11367480473425    3.39163707236931
C         1.26354106211512   -1.62678482428035    3.90325540399397
C        -1.26586981659183   -2.42279791440027    4.72834223967451
H        -1.82901935979561   -2.22956927762718    2.68329875360532
C         1.03127400745322   -1.92227346581337    5.23704549321526
H         2.26084195583523   -1.36160596526608    3.57825350861274
C        -2.61869472128964   -2.92600529640314    5.16040317392534
C        -0.23114958312208   -2.32101145819633    5.65303013842962
H         1.84185966492619   -1.87000323103924    5.95378605523494
C        -2.84579184146386   -4.36777741762232    4.68598657882411
H        -2.68357383294957   -2.89974208288037    6.25274387835095
H        -3.40482637879654   -2.27954000987650    4.75840282161545
H        -0.40755240397745   -2.57677937281757    6.69101110829207
C        -4.07560692308007   -4.96178630162192    5.31392878249492
H        -2.93986533060655   -4.38215115953640    3.59580559222334
H        -1.98776092463529   -4.98451104996542    4.96625519933509
N        -3.88220612767259   -6.00850610424937    6.12053701183837
C        -5.34389717368002   -4.43096564644779    5.09040864623439
C        -4.93635060739973   -6.55054088127762    6.72505507521665
C        -6.43470612770546   -4.99527025069909    5.73350479471588
H        -5.47018283273924   -3.58931831421006    4.42362080561512
C        -6.22954617345154   -6.08131470349510    6.57276980476261
H        -4.71409452506115   -7.39936989595526    7.36114008047325
H        -7.42916191896164   -4.59455413844123    5.58344589628003
H        -7.05184543972917   -6.55106200677181    7.09366948847282
