      -----------------------------------------------------------      
     |                   =====================                   |     
     |                           x T B                           |     
     |                   =====================                   |     
     |                         S. Grimme                         |     
     |          Mulliken Center for Theoretical Chemistry        |     
     |                    University of Bonn                     |     
      -----------------------------------------------------------      

   * xtb version 6.4.0 (f63f532) compiled by 'knkr256@seskscpg008.prim.scp' on 2021-04-09

   xtb is free software: you can redistribute it and/or modify it under
   the terms of the GNU Lesser General Public License as published by
   the Free Software Foundation, either version 3 of the License, or
   (at your option) any later version.
   
   xtb is distributed in the hope that it will be useful,
   but WITHOUT ANY WARRANTY; without even the implied warranty of
   MERCHANTABILITY or FITNESS FOR A PARTICULAR PURPOSE.  See the
   GNU Lesser General Public License for more details.
   
   Cite this work as:
   * C. Bannwarth, E. Caldeweyher, S. Ehlert, A. Hansen, P. Pracht,
     J. Seibert, S. Spicher, S. Grimme, WIREs Comput. Mol. Sci., 2020, 11,
     e01493. DOI: 10.1002/wcms.1493
   
   for GFN2-xTB:
   * C. Bannwarth, S. Ehlert and S. Grimme., J. Chem. Theory Comput., 2019,
     15, 1652-1671. DOI: 10.1021/acs.jctc.8b01176
   for GFN1-xTB:
   * S. Grimme, C. Bannwarth, P. Shushkov, J. Chem. Theory Comput., 2017,
     13, 1989-2009. DOI: 10.1021/acs.jctc.7b00118
   for GFN0-xTB:
   * P. Pracht, E. Caldeweyher, S. Ehlert, S. Grimme, ChemRxiv, 2019, preprint.
     DOI: 10.26434/chemrxiv.8326202.v1
   for GFN-FF:
   * S. Spicher and S. Grimme, Angew. Chem. Int. Ed., 2020, 59, 15665-15673.
     DOI: 10.1002/anie.202004239
   
   for DFT-D4:
   * E. Caldeweyher, C. Bannwarth and S. Grimme, J. Chem. Phys., 2017,
     147, 034112. DOI: 10.1063/1.4993215
   * E. Caldeweyher, S. Ehlert, A. Hansen, H. Neugebauer, S. Spicher,
     C. Bannwarth and S. Grimme, J. Chem. Phys., 2019, 150, 154122.
     DOI: 10.1063/1.5090222
   * E. Caldeweyher, J.-M. Mewes, S. Ehlert and S. Grimme, Phys. Chem. Chem. Phys.
     2020, 22, 8499-8512. DOI: 10.1039/D0CP00502A
   
   for sTDA-xTB:
   * S. Grimme and C. Bannwarth, J. Chem. Phys., 2016, 145, 054103.
     DOI: 10.1063/1.4959605
   
   in the mass-spec context:
   * V. Asgeirsson, C. Bauer and S. Grimme, Chem. Sci., 2017, 8, 4879.
     DOI: 10.1039/c7sc00601b
   * J. Koopman and S. Grimme, ACS Omega 2019, 4, 12, 15120-15133.
     DOI: 10.1021/acsomega.9b02011
   
   for metadynamics refer to:
   * S. Grimme, J. Chem. Theory Comput., 2019, 155, 2847-2862
     DOI: 10.1021/acs.jctc.9b00143
   
   for SPH calculations refer to:
   * S. Spicher and S. Grimme, J. Chem. Theory Comput., 2021, 17, 1701-1714
     DOI: 10.1021/acs.jctc.0c01306
   
   with help from (in alphabetical order)
   P. Atkinson, C. Bannwarth, F. Bohle, G. Brandenburg, E. Caldeweyher
   M. Checinski, S. Dohm, S. Ehlert, S. Ehrlich, I. Gerasimov, J. Koopman
   C. Lavinge, S. Lehtola, F. März, M. Müller, F. Musil, H. Neugebauer
   J. Pisarek, P. Pracht, J. Seibert, P. Shushkov, S. Spicher, M. Stahn
   T. Strunk, J. Stückrath, T. Rose, and J. Unsleber
   
 * started run on 2021/10/08 at 07:25:51.289     

           -------------------------------------------------
          |                Calculation Setup                |
           -------------------------------------------------

          program call               : xtb xtbopt.xyz --sp --alpb thf -P 6
          hostname                   : seskscpg010.prim.scp
          coordinate file            : xtbopt.xyz
          omp threads                :                     6
          number of atoms            :                   111
          number of electrons        :                   290
          charge                     :                     0
          spin                       :                   0.0
          first test random number   :      0.01033496105972

   ID    Z sym.   atoms
    1    7 N      1, 11, 103
    2    6 C      2-6, 10, 12-15, 23, 24, 28, 32, 34, 38, 44, 45, 49, 53, 55,
                  59, 65, 66, 70, 74, 76, 80, 86-89, 91, 93, 94, 96, 100,
                  104-106, 108
    3    1 H      7-9, 16-18, 20, 25-27, 29-31, 35-37, 39-41, 46-48, 50-52,
                  56-58, 60-62, 67-69, 71-73, 77-79, 81-85, 90, 92, 95,
                  97-99, 101, 102, 107, 109-111
    4   77 Ir     19
    5    5 B      21, 42, 63
    6    8 O      22, 33, 43, 54, 64, 75

molecular fragmentation (1/2 indicates fragments):
111111111111111111111111111111111111111111111111111111111111111111111111
111111111111122222222222222222222222222
# atoms in fragment 1/2:    85    26
 fragment masses (1/2) :      730.32      182.24
CMA distance (Bohr)    :  13.219
constraining FC (au)   :  0.0500

           -------------------------------------------------
          |                 G F N 2 - x T B                 |
           -------------------------------------------------

        Reference                      10.1021/acs.jctc.8b01176
      * Hamiltonian:
        H0-scaling (s, p, d)           1.850000    2.230000    2.230000
        zeta-weighting                 0.500000
      * Dispersion:
        s8                             2.700000
        a1                             0.520000
        a2                             5.000000
        s9                             5.000000
      * Repulsion:
        kExp                           1.500000    1.000000
        rExp                           1.000000
      * Coulomb:
        alpha                          2.000000
        third order                    shell-resolved
        anisotropic                    true
        a3                             3.000000
        a5                             4.000000
        cn-shift                       1.200000
        cn-exp                         4.000000
        max-rad                        5.000000

      * Solvation model:               ALPB
        Solvent                        thf
        Parameter file                 internal GFN2-xTB/ALPB
        Dielectric constant                7.6000E+00
        Reference state                gsolv [1 M gas/solution]
        Free energy shift                  5.3248E-03 Eh       3.3414E+00 kcal/mol
        Temperature                        2.9815E+02 K
        Density                            8.8300E-01 kg/L
        Solvent mass                       7.2106E+01 g/mol
        Interaction kernel             P16
        Born radius scaling (c1)           1.7311E+00
        Born radii integrator          GBOBC
        Born offset                        0.0000E+00 a0       0.0000E+00 AA
        H-bond correction              true
        Ion screening                  false
        Surface tension                    1.0000E-05 Eh       1.5569E+01 dyn/cm
        Grid points                               230 per atom
q/qsh data taken from xtbrestart
CAMM data taken from xtbrestart

          ...................................................
          :                      SETUP                      :
          :.................................................:
          :  # basis functions                 279          :
          :  # atomic orbitals                 278          :
          :  # shells                          166          :
          :  # electrons                       290          :
          :  max. iterations                   250          :
          :  Hamiltonian                  GFN2-xTB          :
          :  restarted?                       true          :
          :  GBSA solvation                   true          :
          :  PC potential                    false          :
          :  electronic temp.          300.0000000     K    :
          :  accuracy                    1.0000000          :
          :  -> integral cutoff          0.2500000E+02      :
          :  -> integral neglect         0.1000000E-07      :
          :  -> SCF convergence          0.1000000E-05 Eh   :
          :  -> wf. convergence          0.1000000E-03 e    :
          :  Broyden damping             0.4000000          :
          ...................................................

 iter      E             dE          RMSdq      gap      omega  full diag
   1   -160.0687029 -0.160069E+03  0.169E-05    0.87       0.0  T
   2   -160.0687029  0.171099E-10  0.195E-05    0.87     486.3  T
   3   -160.0687029 -0.200089E-10  0.134E-05    0.87     709.1  T

   *** convergence criteria satisfied after 3 iterations ***

         #    Occupation            Energy/Eh            Energy/eV
      -------------------------------------------------------------
         1        2.0000           -0.6734401             -18.3252
       ...           ...                  ...                  ...
       139        2.0000           -0.3638630              -9.9012
       140        2.0000           -0.3447686              -9.3816
       141        2.0000           -0.3290387              -8.9536
       142        2.0000           -0.3190528              -8.6819
       143        2.0000           -0.3158403              -8.5945
       144        2.0000           -0.3084137              -8.3924
       145        2.0000           -0.3065091              -8.3405 (HOMO)
       146                         -0.2744262              -7.4675 (LUMO)
       147                         -0.2465473              -6.7089
       148                         -0.2441068              -6.6425
       149                         -0.2438930              -6.6367
       150                         -0.2322135              -6.3189
       ...                                ...                  ...
       278                          3.7459004             101.9311
      -------------------------------------------------------------
                  HL-Gap            0.0320829 Eh            0.8730 eV
             Fermi-level           -0.2904076 Eh           -7.9024 eV

 SCC (total)                   0 d,  0 h,  0 min,  0.121 sec
 SCC setup                      ...        0 min,  0.002 sec (  1.975%)
 Dispersion                     ...        0 min,  0.003 sec (  2.151%)
 classical contributions        ...        0 min,  0.000 sec (  0.141%)
 integral evaluation            ...        0 min,  0.034 sec ( 27.805%)
 iterations                     ...        0 min,  0.037 sec ( 30.347%)
 molecular gradient             ...        0 min,  0.045 sec ( 36.952%)
 printout                       ...        0 min,  0.001 sec (  0.569%)

         :::::::::::::::::::::::::::::::::::::::::::::::::::::
         ::                     SUMMARY                     ::
         :::::::::::::::::::::::::::::::::::::::::::::::::::::
         :: total energy            -157.923356271481 Eh    ::
         :: total w/o Gsasa/hb      -157.875737602177 Eh    ::
         :: gradient norm              0.033391819599 Eh/a0 ::
         :: HOMO-LUMO gap              0.873021265067 eV    ::
         ::.................................................::
         :: SCC energy              -160.068702914797 Eh    ::
         :: -> isotropic ES            0.243416100883 Eh    ::
         :: -> anisotropic ES          0.017152432455 Eh    ::
         :: -> anisotropic XC          0.064058327686 Eh    ::
         :: -> dispersion             -0.149783819926 Eh    ::
         :: -> Gsolv                  -0.057211507757 Eh    ::
         ::    -> Gelec               -0.009592838453 Eh    ::
         ::    -> Gsasa               -0.050287823382 Eh    ::
         ::    -> Ghb                 -0.002655661367 Eh    ::
         ::    -> Gshift               0.005324815444 Eh    ::
         :: repulsion energy           2.137139012754 Eh    ::
         :: add. restraining           0.000000000000 Eh    ::
         :: total charge               0.000000000017 e     ::
         :::::::::::::::::::::::::::::::::::::::::::::::::::::

           -------------------------------------------------
          |                Property Printout                |
           -------------------------------------------------

    * Orbital Energies and Occupations

         #    Occupation            Energy/Eh            Energy/eV
      -------------------------------------------------------------
         1        2.0000           -0.6734401             -18.3252
       ...           ...                  ...                  ...
       133        2.0000           -0.3862927             -10.5116
       134        2.0000           -0.3854475             -10.4886
       135        2.0000           -0.3816580             -10.3854
       136        2.0000           -0.3811014             -10.3703
       137        2.0000           -0.3802558             -10.3473
       138        2.0000           -0.3772773             -10.2662
       139        2.0000           -0.3638630              -9.9012
       140        2.0000           -0.3447686              -9.3816
       141        2.0000           -0.3290387              -8.9536
       142        2.0000           -0.3190528              -8.6819
       143        2.0000           -0.3158403              -8.5945
       144        2.0000           -0.3084137              -8.3924
       145        2.0000           -0.3065091              -8.3405 (HOMO)
       146                         -0.2744262              -7.4675 (LUMO)
       147                         -0.2465473              -6.7089
       148                         -0.2441068              -6.6425
       149                         -0.2438930              -6.6367
       150                         -0.2322135              -6.3189
       151                         -0.2081603              -5.6643
       152                         -0.2029364              -5.5222
       153                         -0.2022630              -5.5039
       154                         -0.1821180              -4.9557
       155                         -0.1470585              -4.0017
       156                         -0.1250055              -3.4016
       ...                                ...                  ...
       278                          3.7459004             101.9311
      -------------------------------------------------------------
                  HL-Gap            0.0320829 Eh            0.8730 eV
             Fermi-level           -0.2904076 Eh           -7.9024 eV

     #   Z          covCN         q      C6AA      α(0)
     1   7 N        2.550    -0.122    23.692     7.229
     2   6 C        2.954     0.076    26.301     8.412
     3   6 C        2.918    -0.044    29.087     8.844
     4   6 C        2.923    -0.023    28.583     8.767
     5   6 C        2.915    -0.045    29.112     8.848
     6   6 C        2.892     0.048    26.918     8.506
     7   1 H        0.926     0.051     2.307     2.375
     8   1 H        0.926     0.053     2.278     2.360
     9   1 H        0.926     0.044     2.390     2.418
    10   6 C        2.953     0.072    26.387     8.425
    11   7 N        2.558    -0.127    23.782     7.243
    12   6 C        2.890     0.042    27.063     8.529
    13   6 C        2.915    -0.046    29.134     8.851
    14   6 C        2.922    -0.025    28.639     8.776
    15   6 C        2.918    -0.046    29.130     8.851
    16   1 H        0.926     0.043     2.410     2.428
    17   1 H        0.926     0.049     2.331     2.388
    18   1 H        0.926     0.076     2.026     2.226
    19  77 Ir       5.944    -0.156   388.263    36.438
    20   1 H        0.977     0.085     1.920     2.165
    21   5 B        2.628     0.402    16.044     6.769
    22   8 O        1.638    -0.410    21.058     6.194
    23   6 C        3.835     0.130    18.444     6.110
    24   6 C        3.755    -0.121    22.870     6.819
    25   1 H        0.925     0.053     2.282     2.363
    26   1 H        0.925     0.044     2.396     2.421
    27   1 H        0.925     0.050     2.317     2.380
    28   6 C        3.754    -0.108    22.626     6.783
    29   1 H        0.925     0.046     2.364     2.405
    30   1 H        0.925     0.041     2.441     2.443
    31   1 H        0.925     0.028     2.619     2.531
    32   6 C        3.841     0.131    18.432     6.108
    33   8 O        1.637    -0.405    20.954     6.179
    34   6 C        3.755    -0.120    22.847     6.816
    35   1 H        0.925     0.050     2.326     2.385
    36   1 H        0.925     0.045     2.380     2.413
    37   1 H        0.925     0.049     2.331     2.388
    38   6 C        3.754    -0.119    22.843     6.815
    39   1 H        0.925     0.047     2.361     2.403
    40   1 H        0.925     0.053     2.288     2.365
    41   1 H        0.925     0.044     2.391     2.418
    42   5 B        2.624     0.403    16.056     6.775
    43   8 O        1.637    -0.384    20.554     6.120
    44   6 C        3.836     0.129    18.471     6.114
    45   6 C        3.755    -0.126    22.969     6.834
    46   1 H        0.925     0.055     2.256     2.349
    47   1 H        0.925     0.055     2.253     2.347
    48   1 H        0.925     0.049     2.334     2.389
    49   6 C        3.755    -0.121    22.877     6.820
    50   1 H        0.925     0.048     2.349     2.397
    51   1 H        0.925     0.044     2.391     2.418
    52   1 H        0.925     0.052     2.290     2.366
    53   6 C        3.832     0.128    18.489     6.118
    54   8 O        1.637    -0.383    20.530     6.116
    55   6 C        3.755    -0.124    22.932     6.828
    56   1 H        0.925     0.053     2.283     2.363
    57   1 H        0.925     0.054     2.271     2.356
    58   1 H        0.925     0.048     2.350     2.397
    59   6 C        3.755    -0.124    22.931     6.828
    60   1 H        0.925     0.045     2.378     2.411
    61   1 H        0.925     0.052     2.297     2.370
    62   1 H        0.925     0.051     2.311     2.377
    63   5 B        2.625     0.401    16.067     6.776
    64   8 O        1.637    -0.378    20.428     6.101
    65   6 C        3.832     0.125    18.527     6.124
    66   6 C        3.755    -0.130    23.055     6.846
    67   1 H        0.925     0.059     2.210     2.325
    68   1 H        0.925     0.054     2.270     2.356
    69   1 H        0.925     0.049     2.332     2.388
    70   6 C        3.755    -0.129    23.032     6.843
    71   1 H        0.925     0.061     2.193     2.316
    72   1 H        0.925     0.050     2.321     2.383
    73   1 H        0.925     0.052     2.300     2.372
    74   6 C        3.829     0.127    18.501     6.120
    75   8 O        1.637    -0.382    20.520     6.115
    76   6 C        3.755    -0.124    22.925     6.827
    77   1 H        0.925     0.050     2.319     2.381
    78   1 H        0.925     0.053     2.288     2.365
    79   1 H        0.925     0.054     2.267     2.355
    80   6 C        3.755    -0.122    22.893     6.822
    81   1 H        0.925     0.040     2.449     2.447
    82   1 H        0.925     0.049     2.327     2.385
    83   1 H        0.925     0.054     2.273     2.357
    84   1 H        0.926     0.050     2.317     2.380
    85   1 H        0.926     0.047     2.360     2.402
    86   6 C        2.829    -0.018    28.444     8.739
    87   6 C        2.929    -0.039    28.957     8.825
    88   6 C        2.922    -0.040    29.005     8.832
    89   6 C        2.969     0.006    27.888     8.662
    90   1 H        0.925     0.022     2.706     2.573
    91   6 C        2.917    -0.036    28.892     8.814
    92   1 H        0.926     0.039     2.462     2.454
    93   6 C        3.810    -0.056    21.582     6.613
    94   6 C        2.923    -0.050    29.239     8.867
    95   1 H        0.925     0.031     2.566     2.505
    96   6 C        3.812    -0.069    21.817     6.649
    97   1 H        0.924     0.044     2.391     2.418
    98   1 H        0.924     0.032     2.561     2.503
    99   1 H        0.926     0.033     2.548     2.496
   100   6 C        2.956     0.099    25.806     8.332
   101   1 H        0.924     0.044     2.390     2.418
   102   1 H        0.925     0.062     2.175     2.306
   103   7 N        1.842    -0.252    27.409     7.759
   104   6 C        2.918    -0.051    29.261     8.871
   105   6 C        2.904     0.054    26.782     8.486
   106   6 C        2.927    -0.018    28.447     8.747
   107   1 H        0.926     0.039     2.464     2.455
   108   6 C        2.914    -0.049    29.208     8.862
   109   1 H        0.925     0.039     2.457     2.451
   110   1 H        0.926     0.041     2.433     2.439
   111   1 H        0.926     0.041     2.431     2.438

 Mol. C6AA /au·bohr⁶  :     132761.215859
 Mol. C8AA /au·bohr⁸  :    3499942.842082
 Mol. α(0) /au        :        566.978555


Wiberg/Mayer (AO) data.
largest (>0.10) Wiberg bond orders for each atom

 ---------------------------------------------------------------------------
     #   Z sym  total        # sym  WBO       # sym  WBO       # sym  WBO
 ---------------------------------------------------------------------------
     1   7 N    3.401 --     6 C    1.387     2 C    1.307    19 Ir   0.446
     2   6 C    3.979 --     3 C    1.346     1 N    1.307    10 C    1.095
     3   6 C    3.988 --     4 C    1.486     2 C    1.346     9 H    0.962
                             6 C    0.106
     4   6 C    3.985 --     3 C    1.486     5 C    1.378    84 H    0.969
     5   6 C    3.979 --     6 C    1.463     4 C    1.378     8 H    0.969
     6   6 C    3.978 --     5 C    1.463     1 N    1.387     7 H    0.957
                             3 C    0.106
     7   1 H    0.997 --     6 C    0.957
     8   1 H    0.996 --     5 C    0.969
     9   1 H    0.998 --     3 C    0.962
    10   6 C    3.979 --    15 C    1.351    11 N    1.300     2 C    1.095
    11   7 N    3.403 --    12 C    1.384    10 C    1.300    19 Ir   0.435
    12   6 C    3.973 --    13 C    1.460    11 N    1.384    18 H    0.948
                            15 C    0.105
    13   6 C    3.982 --    12 C    1.460    14 C    1.381    17 H    0.969
    14   6 C    3.982 --    15 C    1.481    13 C    1.381    85 H    0.969
    15   6 C    3.989 --    14 C    1.481    10 C    1.351    16 H    0.962
                            12 C    0.105
    16   1 H    0.998 --    15 C    0.962
    17   1 H    0.997 --    13 C    0.969
    18   1 H    0.994 --    12 C    0.948
    19  77 Ir   5.187 --    63 B    0.873    42 B    0.860    21 B    0.718
                            86 C    0.588    20 H    0.527     1 N    0.446
                            11 N    0.435
    20   1 H    0.990 --    19 Ir   0.527    86 C    0.351
    21   5 B    3.266 --    33 O    1.108    22 O    1.088    19 Ir   0.718
    22   8 O    2.188 --    21 B    1.088    23 C    0.944
    23   6 C    3.944 --    24 C    0.996    28 C    0.990    22 O    0.944
                            32 C    0.941
    24   6 C    3.994 --    23 C    0.996    26 H    0.984    27 H    0.983
                            25 H    0.983
    25   1 H    0.997 --    24 C    0.983
    26   1 H    0.997 --    24 C    0.984
    27   1 H    0.997 --    24 C    0.983
    28   6 C    3.997 --    23 C    0.990    31 H    0.985    29 H    0.984
                            30 H    0.984
    29   1 H    0.997 --    28 C    0.984
    30   1 H    0.998 --    28 C    0.984
    31   1 H    0.999 --    28 C    0.985
    32   6 C    3.941 --    38 C    0.997    34 C    0.991    23 C    0.941
                            33 O    0.940
    33   8 O    2.199 --    21 B    1.108    32 C    0.940
    34   6 C    3.994 --    32 C    0.991    36 H    0.984    37 H    0.982
                            35 H    0.982
    35   1 H    0.998 --    34 C    0.982
    36   1 H    0.997 --    34 C    0.984
    37   1 H    0.997 --    34 C    0.982
    38   6 C    3.994 --    32 C    0.997    41 H    0.984    39 H    0.983
                            40 H    0.983
    39   1 H    0.998 --    38 C    0.983
    40   1 H    0.997 --    38 C    0.983
    41   1 H    0.997 --    38 C    0.984
    42   5 B    3.333 --    43 O    1.114    54 O    1.107    19 Ir   0.860
    43   8 O    2.224 --    42 B    1.114    44 C    0.937
    44   6 C    3.937 --    45 C    0.997    49 C    0.991    53 C    0.939
                            43 O    0.937
    45   6 C    3.993 --    44 C    0.997    48 H    0.983    46 H    0.982
                            47 H    0.982
    46   1 H    0.997 --    45 C    0.982
    47   1 H    0.997 --    45 C    0.982
    48   1 H    0.996 --    45 C    0.983
    49   6 C    3.994 --    44 C    0.991    50 H    0.984    51 H    0.983
                            52 H    0.979
    50   1 H    0.997 --    49 C    0.984
    51   1 H    0.998 --    49 C    0.983
    52   1 H    0.997 --    49 C    0.979
    53   6 C    3.938 --    55 C    0.996    59 C    0.991    44 C    0.939
                            54 O    0.936
    54   8 O    2.226 --    42 B    1.107    53 C    0.936
    55   6 C    3.993 --    53 C    0.996    58 H    0.983    57 H    0.983
                            56 H    0.983
    56   1 H    0.997 --    55 C    0.983
    57   1 H    0.997 --    55 C    0.983
    58   1 H    0.996 --    55 C    0.983
    59   6 C    3.994 --    53 C    0.991    61 H    0.983    62 H    0.983
                            60 H    0.982
    60   1 H    0.998 --    59 C    0.982
    61   1 H    0.996 --    59 C    0.983
    62   1 H    0.997 --    59 C    0.983
    63   5 B    3.358 --    75 O    1.115    64 O    1.111    19 Ir   0.873
    64   8 O    2.228 --    63 B    1.111    65 C    0.939
    65   6 C    3.938 --    70 C    0.996    66 C    0.991    64 O    0.939
                            74 C    0.937
    66   6 C    3.992 --    65 C    0.991    69 H    0.983    68 H    0.983
                            67 H    0.978
    67   1 H    0.996 --    66 C    0.978
    68   1 H    0.997 --    66 C    0.983
    69   1 H    0.997 --    66 C    0.983
    70   6 C    3.992 --    65 C    0.996    72 H    0.984    73 H    0.982
                            71 H    0.982
    71   1 H    0.996 --    70 C    0.982
    72   1 H    0.996 --    70 C    0.984
    73   1 H    0.997 --    70 C    0.982
    74   6 C    3.936 --    76 C    0.996    80 C    0.991    65 C    0.937
                            75 O    0.937
    75   8 O    2.230 --    63 B    1.115    74 C    0.937
    76   6 C    3.993 --    74 C    0.996    77 H    0.983    78 H    0.982
                            79 H    0.982
    77   1 H    0.996 --    76 C    0.983
    78   1 H    0.997 --    76 C    0.982
    79   1 H    0.997 --    76 C    0.982
    80   6 C    3.995 --    74 C    0.991    81 H    0.984    83 H    0.983
                            82 H    0.983
    81   1 H    0.998 --    80 C    0.984
    82   1 H    0.997 --    80 C    0.983
    83   1 H    0.996 --    80 C    0.983
    84   1 H    0.997 --     4 C    0.969
    85   1 H    0.997 --    14 C    0.969
    86   6 C    3.954 --    87 C    1.395    88 C    1.379    19 Ir   0.588
                            20 H    0.351
    87   6 C    3.988 --    89 C    1.406    86 C    1.395    90 H    0.962
                            91 C    0.103
    88   6 C    3.988 --    91 C    1.445    86 C    1.379    92 H    0.961
                            89 C    0.105
    89   6 C    3.984 --    94 C    1.409    87 C    1.406    93 C    1.008
                            88 C    0.105
    90   1 H    0.999 --    87 C    0.962
    91   6 C    3.988 --    88 C    1.445    94 C    1.432    95 H    0.969
                            87 C    0.103
    92   1 H    0.997 --    88 C    0.961
    93   6 C    3.993 --    89 C    1.008    98 H    0.975    97 H    0.973
                            96 C    0.965
    94   6 C    3.985 --    91 C    1.432    89 C    1.409    99 H    0.969
    95   1 H    0.997 --    91 C    0.969
    96   6 C    3.994 --   100 C    1.012   102 H    0.972   101 H    0.971
                            93 C    0.965
    97   1 H    0.997 --    93 C    0.973
    98   1 H    0.999 --    93 C    0.975
    99   1 H    0.997 --    94 C    0.969
   100   6 C    3.976 --   103 N    1.409   104 C    1.387    96 C    1.012
                           108 C    0.111
   101   1 H    0.998 --    96 C    0.971
   102   1 H    0.996 --    96 C    0.972
   103   7 N    3.053 --   105 C    1.438   100 C    1.409
   104   6 C    3.991 --   106 C    1.457   100 C    1.387   107 H    0.969
                           105 C    0.115
   105   6 C    3.982 --   103 N    1.438   108 C    1.431   109 H    0.963
                           104 C    0.115
   106   6 C    3.990 --   104 C    1.457   108 C    1.431   110 H    0.969
   107   1 H    0.998 --   104 C    0.969
   108   6 C    3.990 --   105 C    1.431   106 C    1.431   111 H    0.970
                           100 C    0.111
   109   1 H    0.998 --   105 C    0.963
   110   1 H    0.998 --   106 C    0.969
   111   1 H    0.998 --   108 C    0.970
 ---------------------------------------------------------------------------

Topologies differ in total number of bonds
Writing topology from bond orders to xtbtopo.mol

molecular dipole:
                 x           y           z       tot (Debye)
 q only:        0.080       0.327      -0.982
   full:       -1.419       0.543      -1.781       5.951
molecular quadrupole (traceless):
                xx          xy          yy          xz          yz          zz
 q only:       18.992       3.363      -1.417       4.127      16.072     -17.575
  q+dip:       30.889      11.413      -6.053       1.924      22.682     -24.836
   full:       27.285      11.192      -0.711      -0.712      19.981     -26.574


           -------------------------------------------------
          | TOTAL ENERGY             -157.923356271481 Eh   |
          | GRADIENT NORM               0.033391819599 Eh/α |
          | HOMO-LUMO GAP               0.873021265067 eV   |
           -------------------------------------------------

------------------------------------------------------------------------
 * finished run on 2021/10/08 at 07:25:51.457     
------------------------------------------------------------------------
 total:
 * wall-time:     0 d,  0 h,  0 min,  0.168 sec
 *  cpu-time:     0 d,  0 h,  0 min,  0.981 sec
 * ratio c/w:     5.841 speedup
 SCF:
 * wall-time:     0 d,  0 h,  0 min,  0.122 sec
 *  cpu-time:     0 d,  0 h,  0 min,  0.728 sec
 * ratio c/w:     5.959 speedup

