111
 energy: -157.910170421070 gnorm: 0.074812350097 xtb: 6.4.0 (f63f532)
N        -0.96510000000000   -2.11530000000001   -0.24089999999999
C        -2.24699999999999   -1.69840000000000   -0.36219999999998
C        -3.14040000000000   -2.36819999999999   -1.21199999999999
C        -2.70220000000000   -3.47560000000001   -1.93050000000001
C        -1.37780000000001   -3.89880000000000   -1.78759999999999
C        -0.54290000000001   -3.18670000000001   -0.93510000000003
H         0.49810000000001   -3.45630000000000   -0.78940000000000
H        -0.99570000000000   -4.76030000000001   -2.32770000000000
H        -4.16500000000001   -2.02890000000000   -1.31830000000001
C        -2.62130000000000   -0.50950000000000    0.44100000000001
N        -1.62600000000000    0.07330000000000    1.16020000000000
C        -1.89679999999999    1.15239999999999    1.91690000000000
C        -3.17229999999999    1.70330000000000    1.99649999999999
C        -4.20510000000000    1.11740000000001    1.26269999999998
C        -3.92610000000000    0.00250000000000    0.47820000000001
H        -4.71960000000000   -0.46420000000000   -0.09520000000000
H        -3.34630000000000    2.57510000000000    2.62069999999999
H        -1.04450000000000    1.57420000000000    2.43690000000000
Ir        0.42150000000000   -0.81650000000000    0.91330000000000
H         0.87260000000000   -2.23030000000000    1.54050000000000
B         0.50670000000000    0.41560000000000   -0.81540000000000
O         0.19500000000000   -0.04699999999998   -2.09150000000001
C         0.00650000000001    1.10039999999998   -2.95430000000001
C         0.49020000000003    0.74740000000003   -4.35780000000000
H         1.51609999999999    0.37379999999999   -4.33700000000000
H         0.44730000000001    1.62239999999998   -5.01670000000000
H        -0.14739999999999   -0.03390000000001   -4.78429999999999
C        -1.50119999999997    1.39559999999996   -2.96670000000001
H        -1.75369999999999    2.21460000000000   -3.64850000000000
H        -2.03200000000000    0.49449999999999   -3.28930000000000
H        -1.85170000000000    1.65210000000000   -1.96220000000000
C         0.84230000000001    2.20670000000001   -2.22040000000002
O         0.75200000000000    1.78259999999999   -0.83690000000001
C         2.32930000000001    2.18619999999997   -2.59899999999999
H         2.74130000000000    1.18499999999999   -2.45750000000001
H         2.48869999999999    2.51300000000000   -3.63180000000001
H         2.87200000000000    2.86270000000002   -1.93199999999999
C         0.28440000000002    3.62290000000000   -2.33660000000001
H        -0.72650000000001    3.69040000000000   -1.92910000000002
H         0.92130000000000    4.31480000000000   -1.77610000000001
H         0.26430000000000    3.94809999999999   -3.38320000000002
B         1.56300000000000    0.60959999999999    1.84840000000000
O         2.92780000000000    0.55230000000001    2.15020000000000
C         3.36330000000000    1.88660000000000    2.50259999999999
C         4.53140000000000    1.78590000000000    3.47739999999999
H         4.27910000000000    1.16090000000002    4.33690000000000
H         5.39390000000000    1.33790000000000    2.97340000000001
H         4.82390000000000    2.77870000000001    3.83820000000001
C         3.79700000000000    2.56850000000000    1.19669999999997
H         4.20020000000000    3.57090000000000    1.37680000000000
H         4.56740000000000    1.95560000000000    0.72110000000000
H         2.95240000000000    2.63260000000000    0.50540000000000
C         2.05040000000000    2.50089999999999    3.09319999999999
O         1.03750000000000    1.81619999999999    2.31910000000000
C         1.89100000000000    4.00450000000001    2.88649999999997
H         1.87290000000000    4.25440000000000    1.82410000000000
H         0.94939999999999    4.34260000000000    3.33169999999999
H         2.71080000000001    4.55150000000001    3.36630000000000
C         1.82469999999999    2.13199999999997    4.56520000000001
H         1.92610000000000    1.05330000000000    4.71320000000000
H         2.52609999999998    2.65279999999999    5.22540000000000
H         0.80630000000000    2.41580000000000    4.84900000000000
B         2.27820000000001   -1.33090000000000    0.17410000000000
O         2.89460000000000   -2.57740000000000    0.38450000000001
C         4.26929999999999   -2.48199999999999   -0.07210000000000
C         5.10900000000000   -2.05380000000000    1.14010000000001
H         4.76350000000000   -1.08739999999999    1.51750000000000
H         4.98050000000000   -2.79470000000000    1.93590000000001
H         6.17420000000000   -1.99290000000000    0.89300000000001
C         4.71950000000001   -3.84660000000000   -0.58469999999999
H         4.75280000000000   -4.56130000000000    0.24420000000001
H         5.72330000000000   -3.78370000000000   -1.02009999999999
H         4.03500000000000   -4.23600000000000   -1.34170000000000
C         4.16439999999999   -1.36220000000001   -1.16300000000000
O         3.08520000000002   -0.55029999999999   -0.65400000000000
C         5.40720000000001   -0.48870000000001   -1.31549999999999
H         6.27320000000001   -1.09010000000001   -1.61530000000000
H         5.23300000000001    0.26929999999999   -2.08590000000000
H         5.64270000000000    0.02649999999999   -0.38240000000000
C         3.71799999999999   -1.89829999999999   -2.53110000000000
H         2.82530000000000   -2.52160000000000   -2.42740000000000
H         3.46090000000001   -1.05250000000000   -3.17549999999999
H         4.50570000000000   -2.48290000000000   -3.01789999999999
H        -3.38499999999999   -4.00130000000001   -2.59310000000000
H        -5.21400000000000    1.52079999999999    1.29960000000000
C         0.23590000000000   -1.68139999999999    2.96030000000002
C        -1.01620433930393   -2.11367480473425    3.39163707236931
C         1.26354106211512   -1.62678482428035    3.90325540399397
C        -1.26586981659183   -2.42279791440027    4.72834223967451
H        -1.82901935979561   -2.22956927762718    2.68329875360532
C         1.03127400745322   -1.92227346581337    5.23704549321526
H         2.26084195583523   -1.36160596526608    3.57825350861274
C        -2.61869472128964   -2.92600529640314    5.16040317392534
C        -0.23114958312208   -2.32101145819633    5.65303013842962
H         1.84185966492619   -1.87000323103924    5.95378605523494
C        -2.84579184146386   -4.36777741762232    4.68598657882411
H        -2.68357383294957   -2.89974208288037    6.25274387835095
H        -3.40482637879654   -2.27954000987650    4.75840282161545
H        -0.40755240397745   -2.57677937281757    6.69101110829207
C        -4.07560692308007   -4.96178630162192    5.31392878249492
H        -2.93986533060655   -4.38215115953640    3.59580559222334
H        -1.98776092463529   -4.98451104996542    4.96625519933509
N        -3.88220612767259   -6.00850610424937    6.12053701183837
C        -5.34389717368002   -4.43096564644779    5.09040864623439
C        -4.93635060739973   -6.55054088127762    6.72505507521665
C        -6.43470612770546   -4.99527025069909    5.73350479471588
H        -5.47018283273924   -3.58931831421006    4.42362080561512
C        -6.22954617345154   -6.08131470349510    6.57276980476261
H        -4.71409452506115   -7.39936989595526    7.36114008047325
H        -7.42916191896164   -4.59455413844123    5.58344589628003
H        -7.05184543972917   -6.55106200677181    7.09366948847282
111
 energy: -157.916599218374 gnorm: 0.045622780416 xtb: 6.4.0 (f63f532)
N        -0.96205616027243   -2.09992255118004   -0.25034453614095
C        -2.24091063122312   -1.69047747157132   -0.36321791955081
C        -3.13536523056798   -2.36222165008940   -1.20579902165887
C        -2.70471324682054   -3.46329241499947   -1.92159953231615
C        -1.38435978637580   -3.88196418500325   -1.78206966427107
C        -0.55440240020861   -3.16740035611570   -0.94029945904147
H         0.47917937835637   -3.44774331553484   -0.79035677144251
H        -1.00794808938917   -4.74204800416586   -2.31730265388475
H        -4.15587063144747   -2.02667628404118   -1.31046793230897
C        -2.61203875116892   -0.51404682089300    0.43648984006985
N        -1.61918833275409    0.06447709470077    1.14960932100548
C        -1.89701551593845    1.13798786055141    1.89374523160830
C        -3.16328670146639    1.68878672587576    1.98025163009110
C        -4.19545628908471    1.10467375579751    1.25388320670688
C        -3.91462785625532   -0.00236346724643    0.47448999240214
H        -4.70618625578566   -0.46526124206452   -0.09486574145849
H        -3.33819331985045    2.55192905312930    2.60721156992697
H        -1.05399327159493    1.55563598806897    2.42315352439392
Ir        0.42150000000000   -0.81650000000000    0.91330000000000
H         0.87260000000000   -2.23030000000000    1.54050000000000
B         0.48901482419791    0.42713467223065   -0.78785246958452
O         0.17528517049990   -0.03386767601578   -2.06046818356832
C         0.01113961432371    1.09657821690852   -2.94284940547257
C         0.49024009329156    0.74632205240654   -4.34771030968449
H         1.50916649604057    0.36949143926384   -4.32637159373145
H         0.44558898987789    1.62153476045342   -4.99661263910617
H        -0.14858050477161   -0.02965120569597   -4.76811441386325
C        -1.49298621205882    1.39913257929715   -2.97020968463813
H        -1.73115437269942    2.21180940977819   -3.65485949997370
H        -2.02296785517112    0.50187256668021   -3.28993688281140
H        -1.83991827545624    1.65435504306541   -1.96877791976975
C         0.83257867023149    2.20723045516470   -2.21265611458443
O         0.75541621014050    1.78275286791508   -0.83509505822959
C         2.31506452758781    2.19034019463193   -2.60024241764936
H         2.71900691694581    1.19117901130613   -2.44967139067845
H         2.46691324967169    2.51115181210165   -3.63020567899816
H         2.85747292127727    2.86521436020840   -1.93908801414696
C         0.28124964015041    3.62325022344220   -2.34086027564247
H        -0.72203861672255    3.69232916405410   -1.92853920635611
H         0.92085451796685    4.30698877213915   -1.78424171255231
H         0.26371429332959    3.93523775969670   -3.38525172060674
B         1.56412464648733    0.61867761176541    1.85296088844054
O         2.92506007906235    0.56720851061504    2.13367758498654
C         3.36312609281544    1.88766803859113    2.50859076908299
C         4.53263827004681    1.78917520762887    3.47972041130848
H         4.27993080168588    1.16080859138145    4.32969089750388
H         5.38784528241006    1.34487063972031    2.97217754127959
H         4.81546953685743    2.77931041737575    3.83620108228442
C         3.79967739405838    2.57496947472075    1.21049009978493
H         4.20118422297923    3.57059462632352    1.39453260182393
H         4.56359615109578    1.96307286067636    0.73370318619048
H         2.95153197396684    2.62714750862548    0.52911824358768
C         2.05287957181772    2.50541311368100    3.08884732423989
O         1.04035936111878    1.81026113563244    2.33495185009460
C         1.89440154482057    4.00762352281068    2.88845691566941
H         1.86905094712309    4.25124322047059    1.83013984338914
H         0.95689944926449    4.33672474992618    3.33497679267778
H         2.71495200620527    4.54379107002723    3.36470392527872
C         1.83170162291615    2.14148688716598    4.56117537434134
H         1.93198949520561    1.06573186704636    4.69932478219186
H         2.53302300072002    2.66299627200643    5.21022217760578
H         0.81723574136057    2.42017599884306    4.84534315113663
B         2.27820000000001   -1.33090000000000    0.17410000000000
O         2.90103672100888   -2.56184530087733    0.39074253873404
C         4.26535187397923   -2.48379530718404   -0.07741161618480
C         5.10969920160374   -2.05897204862138    1.12844888734657
H         4.75335672788011   -1.09874568544794    1.49907980514361
H         4.97778599641607   -2.79418928886789    1.92144880066756
H         6.16751455812470   -1.99900515640351    0.87670688696649
C         4.71996476657476   -3.84609119765513   -0.58699598226180
H         4.74931392824605   -4.55025337522437    0.24321494878982
H         5.71778459342097   -3.77475616709965   -1.01917174885486
H         4.03426619632732   -4.23365677765032   -1.33567872044737
C         4.16633383658272   -1.36089399878607   -1.15765036051830
O         3.07428756364595   -0.56392638489273   -0.66246167129422
C         5.40976807967961   -0.49286337005044   -1.31537189534404
H         6.26596055380181   -1.09881715194529   -1.61081502720647
H         5.23161020574094    0.25817146556512   -2.08384056001305
H         5.63730567810174    0.02181669073294   -0.38635056312324
C         3.72955080068171   -1.90038337783839   -2.52573064569273
H         2.83736946137787   -2.51562715985703   -2.41697832566015
H         3.47235705898041   -1.05893334911825   -3.16777984522691
H         4.51955437118976   -2.47772865741845   -3.00325430419902
H        -3.38383331036325   -3.98811826809507   -2.57987313842014
H        -5.19948254121435    1.50615926249533    1.29447107703973
C         0.23590000000000   -1.68139999999999    2.96030000000002
C        -1.01531015745333   -2.11368719514653    3.39208173701114
C         1.26196971357460   -1.62431783359562    3.90560896213657
C        -1.26540277216716   -2.42105276497030    4.72738361952074
H        -1.82704030555628   -2.22991365338395    2.68456112258329
C         1.02702477364806   -1.91850739555438    5.23698605472504
H         2.25777848897031   -1.35908501486714    3.58262688117057
C        -2.61747528728816   -2.92347796953115    5.15957854869048
C        -0.23353816552598   -2.31731049899602    5.65052060543848
H         1.83527230308568   -1.86519019862474    5.95422247419239
C        -2.84712060661267   -4.36888582121525    4.68830875459550
H        -2.68333462696619   -2.89559378556687    6.25006457790746
H        -3.40285736882103   -2.27908747615401    4.75715216233092
H        -0.41041953512085   -2.57141879879799    6.68691608265266
C        -4.07574149900767   -4.96205726833742    5.31623682575952
H        -2.94037052231178   -4.38444627128037    3.59953679918549
H        -1.99025194517938   -4.98362913910007    4.96863457378816
N        -3.88445476328652   -6.00432679144197    6.12092258573853
C        -5.34416330010935   -4.43194857149248    5.09000890978048
C        -4.93322082578114   -6.54603317762532    6.72337164526580
C        -6.43377977064227   -4.99528678519829    5.73112585311809
H        -5.46982630379701   -3.59205818210434    4.42311985640175
C        -6.22780369754567   -6.07975648770724    6.57128240394801
H        -4.71023599079875   -7.39370679730895    7.35940514761961
H        -7.42716452365044   -4.59608864081066    5.58046548918098
H        -7.04834523926337   -6.54997160037309    7.09151851609549
111
 energy: -157.918223443865 gnorm: 0.036170130814 xtb: 6.4.0 (f63f532)
N        -0.95516631781453   -2.09238448444899   -0.25742498898804
C        -2.23241171447312   -1.68443667185667   -0.36515715916475
C        -3.13193275883973   -2.35533619519446   -1.20255508100481
C        -2.70925891003818   -3.45331894137706   -1.91937780386719
C        -1.38902004895230   -3.87223605505970   -1.78342296611844
C        -0.55947401777917   -3.15804834167023   -0.94625231054901
H         0.47292499214850   -3.44201778122892   -0.80435417675054
H        -1.01819150156883   -4.73172038725886   -2.31717155271798
H        -4.15133091363631   -2.02103974155559   -1.29921574583822
C        -2.59958460312125   -0.51672110518686    0.43014604834232
N        -1.60925521721331    0.05588866089433    1.14593359758314
C        -1.89295419138032    1.12493596183637    1.88410644013716
C        -3.15403256008495    1.67855813269459    1.97079980937543
C        -4.18696514809845    1.09570470105016    1.24426303614979
C        -3.90238669366561   -0.00552267803467    0.46584258376705
H        -4.69128443151220   -0.46930203609145   -0.10221090744305
H        -3.32897970430031    2.53881297406301    2.59619967139974
H        -1.05499813707873    1.54743513978733    2.41450060333922
Ir        0.42150000000000   -0.81650000000000    0.91330000000000
H         0.87260000000000   -2.23030000000000    1.54050000000000
B         0.49293329377009    0.43972214909454   -0.76392110323495
O         0.15543200014962   -0.02301991246896   -2.02877262551446
C         0.00690777081043    1.09395776899683   -2.92222972502912
C         0.49130717398153    0.73705970377463   -4.32404293528818
H         1.50642354287837    0.35620856523581   -4.30328976423205
H         0.44732097942998    1.61502665402224   -4.96376238868386
H        -0.15168982312113   -0.03278791547913   -4.74283368762497
C        -1.49540670123282    1.40646725763303   -2.97016563482200
H        -1.71458473137580    2.21499441772254   -3.66122820922806
H        -2.02476702898198    0.51149745369547   -3.29063458252376
H        -1.84553738904605    1.66588935823154   -1.97319947378820
C         0.82548287952089    2.20766713549349   -2.20014541324537
O         0.75931463264702    1.78949346661139   -0.82694631681477
C         2.30549116082318    2.19490251574391   -2.59783167989616
H         2.70622191387845    1.19728959463302   -2.43949828641668
H         2.44430435382797    2.50732459029766   -3.62905631738883
H         2.84815591210250    2.87472637513232   -1.94556484955477
C         0.27192745794640    3.62222913532941   -2.33940877005265
H        -0.72731805342946    3.69768624741768   -1.92384746753173
H         0.91669004723691    4.30510687588000   -1.79275480114692
H         0.25517472952225    3.91670350283511   -3.38548761931626
B         1.56592579924062    0.62582972230936    1.85915408523815
O         2.92363191045688    0.57932715026375    2.11976884520980
C         3.36195955149272    1.88972301606096    2.50969223736859
C         4.52929065920252    1.78930969072221    3.48415517755319
H         4.27905415994100    1.15619640905987    4.32839393091221
H         5.38235092394228    1.35212221973256    2.97252827621805
H         4.80249852495905    2.77878493290142    3.83950683843832
C         3.80410802366675    2.58859063829549    1.21988472633305
H         4.20249162753114    3.58015628836489    1.41223146656894
H         4.56727327525451    1.97919541935734    0.74331332198593
H         2.95490009893512    2.63556124149160    0.54252359472806
C         2.05373286302466    2.50637441155337    3.08921598851439
O         1.04259363322545    1.80475745925516    2.34881526315746
C         1.89726779979465    4.00856206143614    2.88669122591514
H         1.86427018767515    4.25063099042311    1.83038581708043
H         0.96482461134863    4.33426841934468    3.33948018287292
H         2.72161376740245    4.53582077499632    3.35834396714979
C         1.84204108543161    2.15150885168224    4.56594333744888
H         1.94309809244719    1.07726683576086    4.69937046134041
H         2.54635440678142    2.67641883633025    5.20349648994064
H         0.82984588204388    2.42852483372341    4.85105813601111
B         2.27820000000001   -1.33089999999999    0.17410000000001
O         2.90306618491827   -2.54998687351471    0.39973703628187
C         4.25796344569701   -2.48261314118082   -0.07737973595600
C         5.11307933859065   -2.06136890852617    1.12175056446983
H         4.75200944281096   -1.10379021198280    1.48898949455273
H         4.98153286427872   -2.79493741102851    1.91277273010420
H         6.16532870806563   -2.00275063890203    0.86131816630747
C         4.71122087099263   -3.84494948714451   -0.58931700946308
H         4.74275010032156   -4.54236226615228    0.24271048826339
H         5.70507283565467   -3.76498071250538   -1.02043385670063
H         4.02538189862150   -4.23431049251395   -1.33346052073839
C         4.16176317230697   -1.36197549313472   -1.15610485313178
O         3.06268220702137   -0.57381544627182   -0.67146062329576
C         5.40693594720410   -0.49592231757630   -1.30955924917795
H         6.25540924809223   -1.10950900374702   -1.59889874489856
H         5.23070616990181    0.24820606436957   -2.08129618033916
H         5.63094446535482    0.02128544483417   -0.38376544407722
C         3.74003763081100   -1.90560924459210   -2.52791460992710
H         2.84873607703854   -2.51795520904460   -2.41833222153520
H         3.48687987360410   -1.06617378630519   -3.17080724554098
H         4.53632190851982   -2.47900829130624   -2.99213516393555
H        -3.38983679135841   -3.97831482989265   -2.57160011480939
H        -5.18928247599706    1.49410327676948    1.28750943316754
C         0.23590000000001   -1.68139999999998    2.96030000000002
C        -1.01514336181316   -2.11369242833782    3.39110941458427
C         1.26029736840489   -1.61949563190905    3.90802451380881
C        -1.26701231048670   -2.41787606688065    4.72622987667203
H        -1.82517622813907   -2.23273582221125    2.68287724462966
C         1.02227080975626   -1.91061314738450    5.23849102330771
H         2.25525823863625   -1.35325290605398    3.58643615117341
C        -2.61880149122282   -2.91900374184188    5.15793599335700
C        -0.23782956465358   -2.31054694394242    5.64990637512849
H         1.82812988253495   -1.85400430455354    5.95723808499320
C        -2.84673256972158   -4.36775619119286    4.68958654941566
H        -2.68581782640549   -2.88917640662770    6.24743833920129
H        -3.40400505412965   -2.27769600965845    4.75247591799243
H        -0.41596576890068   -2.56227211405224    6.68584438087789
C        -4.07424605966879   -4.96002601423741    5.31804932628861
H        -2.93931535075941   -4.38529593817124    3.60153428111351
H        -1.98993864426694   -4.97975368867121    4.97247780056016
N        -3.88459864120568   -5.99859408188383    6.12322282563369
C        -5.34368998193048   -4.43182809782677    5.08804272596586
C        -4.92997971681303   -6.54153915748048    6.72408163306302
C        -6.43265802375311   -4.99576900498054    5.72785514181031
H        -5.46923234197672   -3.59396908615487    4.41958408184320
C        -6.22631337451094   -6.07876061195831    6.57016732748396
H        -4.70697377516473   -7.38793301109057    7.36146808438202
H        -7.42610899549758   -4.59924357483776    5.57500241766743
H        -7.04587840372975   -6.54968307985472    7.08959671261100
111
 energy: -157.918780700561 gnorm: 0.035423468096 xtb: 6.4.0 (f63f532)
N        -0.94669743848202   -2.08943031132848   -0.26746382899278
C        -2.22498987185161   -1.68169719733196   -0.36925693360159
C        -3.12979993427259   -2.35293695726459   -1.20202240554721
C        -2.71277659946870   -3.45087485702509   -1.92067151621291
C        -1.39054740440855   -3.86971062671401   -1.79130117596630
C        -0.55682939536186   -3.15450547552714   -0.95899261889039
H         0.47561134725807   -3.44227604404058   -0.82248588212433
H        -1.02384683091567   -4.72984762981235   -2.32580822199990
H        -4.14931272384570   -2.01732304341661   -1.29194047358756
C        -2.58987800883925   -0.51731204305393    0.42564483625516
N        -1.60000413629444    0.05419942774028    1.14373073412525
C        -1.88639349091112    1.12323807644622    1.87990415572353
C        -3.14713349821676    1.67677995533118    1.96634254915425
C        -4.18072329980056    1.09323531576197    1.23854960215276
C        -3.89350179590005   -0.00597839239120    0.45981063882833
H        -4.67981646090217   -0.46964387256830   -0.11165550687038
H        -3.32298472600187    2.53566581546478    2.59224013902215
H        -1.05176603524729    1.54622731264869    2.41576250448539
Ir        0.42150000000000   -0.81650000000000    0.91330000000000
H         0.87260000000000   -2.23030000000000    1.54050000000000
B         0.47859203749809    0.45549274880189   -0.74381013344623
O         0.13366086932772   -0.01349975848023   -2.00429749592249
C        -0.00151345657995    1.09454872625571   -2.90511426567988
C         0.49056293454001    0.72604740125991   -4.30210131662423
H         1.50300385288889    0.33891718594739   -4.27428165696051
H         0.45444545943915    1.60322449469978   -4.94277258808772
H        -0.15563389073089   -0.04110023792795   -4.72047363881936
C        -1.50250736162504    1.41569376148969   -2.96991257307127
H        -1.70663519231710    2.22178225824074   -3.66784558239630
H        -2.03293155605218    0.52207953465463   -3.29169884946058
H        -1.86115077044485    1.68231006000680   -1.97801520246267
C         0.81822229804343    2.21078712892534   -2.18782700131965
O         0.75968580315842    1.80028883347104   -0.81526747408267
C         2.29687872820504    2.19860257719313   -2.59403257032780
H         2.69940194275576    1.20290428367888   -2.42873859601886
H         2.42716230028581    2.50234596796867   -3.62856951402267
H         2.84085951467459    2.88580451814530   -1.95085736167035
C         0.26386307839039    3.62513616516194   -2.33605507866642
H        -0.73336618474489    3.70514148336387   -1.91691854057877
H         0.91227093698897    4.31262171842909   -1.79968848553416
H         0.24295035775478    3.90648337069065   -3.38543643719020
B         1.56678347006151    0.62991999329403    1.86203777308289
O         2.92469133578416    0.58705826162595    2.10764582064108
C         3.36203568029720    1.89206360883778    2.50954714063870
C         4.52808733183345    1.78755456694545    3.48669293410014
H         4.27847723735721    1.14831610264490    4.32630684804059
H         5.38342269840848    1.35717308937467    2.97334247000658
H         4.79508594838252    2.77636229865999    3.84778487998170
C         3.80894042310252    2.60234166828496    1.22650620042508
H         4.20377366451531    3.59281252412192    1.42887073272266
H         4.57563284609795    1.99794589034470    0.74934847694681
H         2.96172621398234    2.65144306578842    0.54718431767867
C         2.05419653845929    2.50717487875774    3.09187679459995
O         1.04175334698937    1.80035361132812    2.36187580079926
C         1.89665368580285    4.00972423700566    2.88607158817877
H         1.85585947542695    4.24989181639069    1.82965582212229
H         0.96848401567598    4.33713772581293    3.34606190160796
H         2.72624328407823    4.53465981157510    3.35044632702817
C         1.85198373824250    2.16027444107130    4.57289365386164
H         1.95478035946163    1.08685784354352    4.70964549635822
H         2.56045941320930    2.68971322798547    5.20133775131938
H         0.84140583190102    2.43816239031842    4.86207063213497
B         2.27820000000001   -1.33089999999997    0.17410000000001
O         2.90427633388944   -2.54404223435639    0.40934376747470
C         4.25319030207859   -2.48260372449118   -0.07617984025123
C         5.11773455476313   -2.06273475184436    1.11779038256781
H         4.75839197288854   -1.10511141810175    1.48616076305759
H         4.98945727693856   -2.79652115547439    1.90883201826195
H         6.16751969296688   -2.00540455309834    0.84957871283595
C         4.70219045479194   -3.84704487902498   -0.58906734731672
H         4.73703478990724   -4.54262321397923    0.24409217682019
H         5.69386410276059   -3.76504186876720   -1.02385096005899
H         4.01339427516595   -4.23701757850933   -1.32996855254974
C         4.15809213160444   -1.36367343888525   -1.15680034702082
O         3.05406590301733   -0.57943853912776   -0.68132532157376
C         5.40374990336097   -0.49639850196178   -1.30526478880077
H         6.25176283101154   -1.11391276755364   -1.58665841712848
H         5.23216914091060    0.24382840702572   -2.08156774920789
H         5.62270203296701    0.02426478035784   -0.38039056172768
C         3.74908772277661   -1.91121126649652   -2.53194283794885
H         2.85811706931981   -2.52449050600057   -2.42786502391814
H         3.50149553285368   -1.07326010389398   -3.17874709606026
H         4.55163282356734   -2.48378549798097   -2.98531391035157
H        -3.39677005837645   -3.97535413875732   -2.56934976361167
H        -5.18326103233930    1.49015800475925    1.28176731784113
C         0.23590000000002   -1.68139999999998    2.96030000000002
C        -1.01534342264051   -2.11366668029166    3.38958902519520
C         1.25842722577292   -1.61381652761824    3.91002917413880
C        -1.26977791981052   -2.41303162758371    4.72540385858173
H        -1.82358632728914   -2.23656195669669    2.67993786873017
C         1.01768191498553   -1.90058246168437    5.24083168593483
H         2.25334566834046   -1.34665786759750    3.58936418887890
C        -2.62156590445672   -2.91413460143838    5.15571291872848
C        -0.24284445595898   -2.30116310195776    5.65084851299289
H         1.82150003548183   -1.83973073328720    5.96150104135994
C        -2.84577785577106   -4.36508475536291    4.69050636160882
H        -2.69087891654816   -2.88173297810578    6.24486711581925
H        -3.40692493306496   -2.27583035965729    4.74621230938482
H        -0.42270203010778   -2.54985879635992    6.68719732399045
C        -4.07282098107588   -4.95776642613480    5.31845767277219
H        -2.93678052370053   -4.38511849103212    3.60251330864663
H        -1.98812572280307   -4.97419969300564    4.97672057820595
N        -3.88331036610691   -5.99353771456186    6.12647827076132
C        -5.34322662644528   -4.43215909413768    5.08490129913853
C        -4.92791215614662   -6.53757977785863    6.72680931837173
C        -6.43190781526991   -4.99704041907636    5.72417865374953
H        -5.46910309673073   -3.59604315735209    4.41438217905165
C        -6.22532246191769   -6.07800392240756    6.56942328274283
H        -4.70506449529000   -7.38239613233202    7.36642912137305
H        -7.42601737819523   -4.60314848918568    5.56856648571766