      -----------------------------------------------------------      
     |                   =====================                   |     
     |                           x T B                           |     
     |                   =====================                   |     
     |                         S. Grimme                         |     
     |          Mulliken Center for Theoretical Chemistry        |     
     |                    University of Bonn                     |     
      -----------------------------------------------------------      

   * xtb version 6.4.1 (1a32961) compiled by 'knkr256@seskscpg007.prim.scp' on 2021-10-19

   xtb is free software: you can redistribute it and/or modify it under
   the terms of the GNU Lesser General Public License as published by
   the Free Software Foundation, either version 3 of the License, or
   (at your option) any later version.
   
   xtb is distributed in the hope that it will be useful,
   but WITHOUT ANY WARRANTY; without even the implied warranty of
   MERCHANTABILITY or FITNESS FOR A PARTICULAR PURPOSE.  See the
   GNU Lesser General Public License for more details.
   
   Cite this work as:
   * C. Bannwarth, E. Caldeweyher, S. Ehlert, A. Hansen, P. Pracht,
     J. Seibert, S. Spicher, S. Grimme, WIREs Comput. Mol. Sci., 2020, 11,
     e01493. DOI: 10.1002/wcms.1493
   
   for GFN2-xTB:
   * C. Bannwarth, S. Ehlert and S. Grimme., J. Chem. Theory Comput., 2019,
     15, 1652-1671. DOI: 10.1021/acs.jctc.8b01176
   for GFN1-xTB:
   * S. Grimme, C. Bannwarth, P. Shushkov, J. Chem. Theory Comput., 2017,
     13, 1989-2009. DOI: 10.1021/acs.jctc.7b00118
   for GFN0-xTB:
   * P. Pracht, E. Caldeweyher, S. Ehlert, S. Grimme, ChemRxiv, 2019, preprint.
     DOI: 10.26434/chemrxiv.8326202.v1
   for GFN-FF:
   * S. Spicher and S. Grimme, Angew. Chem. Int. Ed., 2020, 59, 15665-15673.
     DOI: 10.1002/anie.202004239
   
   for ALPB and GBSA implicit solvation:
   * S. Ehlert, M. Stahn, S. Spicher, S. Grimme, J. Chem. Theory Comput.,
     2021, 17, 4250-4261. DOI: 10.1021/acs.jctc.1c00471
   
   for DFT-D4:
   * E. Caldeweyher, C. Bannwarth and S. Grimme, J. Chem. Phys., 2017,
     147, 034112. DOI: 10.1063/1.4993215
   * E. Caldeweyher, S. Ehlert, A. Hansen, H. Neugebauer, S. Spicher,
     C. Bannwarth and S. Grimme, J. Chem. Phys., 2019, 150, 154122.
     DOI: 10.1063/1.5090222
   * E. Caldeweyher, J.-M. Mewes, S. Ehlert and S. Grimme, Phys. Chem. Chem. Phys.
     2020, 22, 8499-8512. DOI: 10.1039/D0CP00502A
   
   for sTDA-xTB:
   * S. Grimme and C. Bannwarth, J. Chem. Phys., 2016, 145, 054103.
     DOI: 10.1063/1.4959605
   
   in the mass-spec context:
   * V. Asgeirsson, C. Bauer and S. Grimme, Chem. Sci., 2017, 8, 4879.
     DOI: 10.1039/c7sc00601b
   * J. Koopman and S. Grimme, ACS Omega 2019, 4, 12, 15120-15133.
     DOI: 10.1021/acsomega.9b02011
   
   for metadynamics refer to:
   * S. Grimme, J. Chem. Theory Comput., 2019, 155, 2847-2862
     DOI: 10.1021/acs.jctc.9b00143
   
   for SPH calculations refer to:
   * S. Spicher and S. Grimme, J. Chem. Theory Comput., 2021, 17, 1701-1714
     DOI: 10.1021/acs.jctc.0c01306
   
   with help from (in alphabetical order)
   P. Atkinson, C. Bannwarth, F. Bohle, G. Brandenburg, E. Caldeweyher
   M. Checinski, S. Dohm, S. Ehlert, S. Ehrlich, I. Gerasimov, J. Koopman
   C. Lavigne, S. Lehtola, F. März, M. Müller, F. Musil, H. Neugebauer
   J. Pisarek, C. Plett, P. Pracht, J. Seibert, P. Shushkov, S. Spicher
   M. Stahn, M. Steiner, T. Strunk, J. Stückrath, T. Rose, and J. Unsleber
   
 * started run on 2022/01/14 at 13:34:16.524     

           -------------------------------------------------
          |                Calculation Setup                |
           -------------------------------------------------

          program call               : xtb xtbopt.xyz --sp --alpb thf -P 6
          hostname                   : seskscpg007.prim.scp
          coordinate file            : xtbopt.xyz
          omp threads                :                     6
          number of atoms            :                    99
          number of electrons        :                   266
          charge                     :                     0
          spin                       :                   0.0
          first test random number   :      0.34743446229581

   ID    Z sym.   atoms
    1    7 N      1, 11
    2    6 C      2-6, 10, 12-15, 23, 24, 28, 32, 34, 38, 44, 45, 49, 53, 55,
                  59, 65, 66, 70, 74, 76, 80, 86-89, 91, 93, 97
    3    1 H      7-9, 16-18, 20, 25-27, 29-31, 35-37, 39-41, 46-48, 50-52,
                  56-58, 60-62, 67-69, 71-73, 77-79, 81-85, 90, 92, 95, 98, 99
    4   77 Ir     19
    5    5 B      21, 42, 63
    6    8 O      22, 33, 43, 54, 64, 75, 94, 96

molecular fragmentation (1/2 indicates fragments):
111111111111111111111111111111111111111111111111111111111111111111111111
111111111111122222222222222
# atoms in fragment 1/2:    85    14
 fragment masses (1/2) :      730.32      121.11
CMA distance (Bohr)    :  10.263
constraining FC (au)   :  0.0500

           -------------------------------------------------
          |                 G F N 2 - x T B                 |
           -------------------------------------------------

        Reference                      10.1021/acs.jctc.8b01176
      * Hamiltonian:
        H0-scaling (s, p, d)           1.850000    2.230000    2.230000
        zeta-weighting                 0.500000
      * Dispersion:
        s8                             2.700000
        a1                             0.520000
        a2                             5.000000
        s9                             5.000000
      * Repulsion:
        kExp                           1.500000    1.000000
        rExp                           1.000000
      * Coulomb:
        alpha                          2.000000
        third order                    shell-resolved
        anisotropic                    true
        a3                             3.000000
        a5                             4.000000
        cn-shift                       1.200000
        cn-exp                         4.000000
        max-rad                        5.000000

      * Solvation model:               ALPB
        Solvent                        thf
        Parameter file                 internal GFN2-xTB/ALPB
        Dielectric constant                7.6000E+00
        Reference state                gsolv [1 M gas/solution]
        Free energy shift                  5.3248E-03 Eh       3.3414E+00 kcal/mol
        Temperature                        2.9815E+02 K
        Density                            8.8300E-01 kg/L
        Solvent mass                       7.2106E+01 g/mol
        Interaction kernel             P16
        Born radius scaling (c1)           1.7311E+00
        Born radii integrator          GBOBC
        Born offset                        0.0000E+00 a0       0.0000E+00 AA
        H-bond correction              true
        Ion screening                  false
        Surface tension                    1.0000E-05 Eh       1.5569E+01 dyn/cm
        Grid points                               230 per atom
q/qsh data taken from xtbrestart
CAMM data taken from xtbrestart

          ...................................................
          :                      SETUP                      :
          :.................................................:
          :  # basis functions                 252          :
          :  # atomic orbitals                 251          :
          :  # shells                          149          :
          :  # electrons                       266          :
          :  max. iterations                   250          :
          :  Hamiltonian                  GFN2-xTB          :
          :  restarted?                       true          :
          :  GBSA solvation                   true          :
          :  PC potential                    false          :
          :  electronic temp.          300.0000000     K    :
          :  accuracy                    1.0000000          :
          :  -> integral cutoff          0.2500000E+02      :
          :  -> integral neglect         0.1000000E-07      :
          :  -> SCF convergence          0.1000000E-05 Eh   :
          :  -> wf. convergence          0.1000000E-03 e    :
          :  Broyden damping             0.4000000          :
          ...................................................

 iter      E             dE          RMSdq      gap      omega  full diag
   1   -148.5413828 -0.148541E+03  0.569E-05    0.88       0.0  T
   2   -148.5413828  0.102006E-09  0.529E-05    0.88     189.8  T
   3   -148.5413828  0.832756E-11  0.485E-05    0.88     207.4  T

   *** convergence criteria satisfied after 3 iterations ***

         #    Occupation            Energy/Eh            Energy/eV
      -------------------------------------------------------------
         1        2.0000           -0.7394890             -20.1225
       ...           ...                  ...                  ...
       127        2.0000           -0.3665257              -9.9737
       128        2.0000           -0.3474715              -9.4552
       129        2.0000           -0.3308750              -9.0036
       130        2.0000           -0.3218988              -8.7593
       131        2.0000           -0.3188299              -8.6758
       132        2.0000           -0.3102784              -8.4431
       133        2.0000           -0.3081424              -8.3850 (HOMO)
       134                         -0.2758329              -7.5058 (LUMO)
       135                         -0.2477152              -6.7407
       136                         -0.2454543              -6.6792
       137                         -0.2158174              -5.8727
       138                         -0.2099693              -5.7136
       ...                                ...                  ...
       251                          3.7583726             102.2705
      -------------------------------------------------------------
                  HL-Gap            0.0323095 Eh            0.8792 eV
             Fermi-level           -0.2919400 Eh           -7.9441 eV

 SCC (total)                   0 d,  0 h,  0 min,  0.085 sec
 SCC setup                      ...        0 min,  0.002 sec (  2.851%)
 Dispersion                     ...        0 min,  0.003 sec (  3.070%)
 classical contributions        ...        0 min,  0.000 sec (  0.181%)
 integral evaluation            ...        0 min,  0.010 sec ( 11.574%)
 iterations                     ...        0 min,  0.035 sec ( 41.687%)
 molecular gradient             ...        0 min,  0.034 sec ( 39.703%)
 printout                       ...        0 min,  0.001 sec (  0.846%)

         :::::::::::::::::::::::::::::::::::::::::::::::::::::
         ::                     SUMMARY                     ::
         :::::::::::::::::::::::::::::::::::::::::::::::::::::
         :: total energy            -146.723994389814 Eh    ::
         :: total w/o Gsasa/hb      -146.684074907308 Eh    ::
         :: gradient norm              0.034172667426 Eh/a0 ::
         :: HOMO-LUMO gap              0.879185652116 eV    ::
         ::.................................................::
         :: SCC energy              -148.541382760071 Eh    ::
         :: -> isotropic ES            0.266030540139 Eh    ::
         :: -> anisotropic ES          0.012671780874 Eh    ::
         :: -> anisotropic XC          0.039211962517 Eh    ::
         :: -> dispersion             -0.136423967589 Eh    ::
         :: -> Gsolv                  -0.050598922212 Eh    ::
         ::    -> Gelec               -0.010679439706 Eh    ::
         ::    -> Gsasa               -0.042600008754 Eh    ::
         ::    -> Ghb                 -0.002644289196 Eh    ::
         ::    -> Gshift               0.005324815444 Eh    ::
         :: repulsion energy           1.809494232323 Eh    ::
         :: add. restraining           0.000000000000 Eh    ::
         :: total charge               0.000000000007 e     ::
         :::::::::::::::::::::::::::::::::::::::::::::::::::::

           -------------------------------------------------
          |                Property Printout                |
           -------------------------------------------------

    * Orbital Energies and Occupations

         #    Occupation            Energy/Eh            Energy/eV
      -------------------------------------------------------------
         1        2.0000           -0.7394890             -20.1225
       ...           ...                  ...                  ...
       121        2.0000           -0.3981587             -10.8345
       122        2.0000           -0.3904463             -10.6246
       123        2.0000           -0.3871530             -10.5350
       124        2.0000           -0.3852426             -10.4830
       125        2.0000           -0.3822900             -10.4026
       126        2.0000           -0.3808685             -10.3640
       127        2.0000           -0.3665257              -9.9737
       128        2.0000           -0.3474715              -9.4552
       129        2.0000           -0.3308750              -9.0036
       130        2.0000           -0.3218988              -8.7593
       131        2.0000           -0.3188299              -8.6758
       132        2.0000           -0.3102784              -8.4431
       133        2.0000           -0.3081424              -8.3850 (HOMO)
       134                         -0.2758329              -7.5058 (LUMO)
       135                         -0.2477152              -6.7407
       136                         -0.2454543              -6.6792
       137                         -0.2158174              -5.8727
       138                         -0.2099693              -5.7136
       139                         -0.2043917              -5.5618
       140                         -0.1852681              -5.0414
       141                         -0.1497994              -4.0762
       142                         -0.1260713              -3.4306
       143                         -0.1224941              -3.3332
       144                         -0.1115414              -3.0352
       ...                                ...                  ...
       251                          3.7583726             102.2705
      -------------------------------------------------------------
                  HL-Gap            0.0323095 Eh            0.8792 eV
             Fermi-level           -0.2919400 Eh           -7.9441 eV

     #   Z          covCN         q      C6AA      α(0)
     1   7 N        2.544    -0.121    23.658     7.224
     2   6 C        2.955     0.077    26.272     8.407
     3   6 C        2.918    -0.042    29.048     8.838
     4   6 C        2.924    -0.022    28.553     8.763
     5   6 C        2.915    -0.043    29.068     8.841
     6   6 C        2.893     0.048    26.932     8.509
     7   1 H        0.926     0.055     2.259     2.350
     8   1 H        0.926     0.057     2.234     2.337
     9   1 H        0.926     0.047     2.361     2.403
    10   6 C        2.954     0.074    26.356     8.420
    11   7 N        2.554    -0.126    23.769     7.241
    12   6 C        2.891     0.042    27.065     8.529
    13   6 C        2.915    -0.045    29.107     8.847
    14   6 C        2.923    -0.024    28.597     8.769
    15   6 C        2.918    -0.045    29.129     8.850
    16   1 H        0.926     0.047     2.359     2.402
    17   1 H        0.926     0.051     2.307     2.375
    18   1 H        0.926     0.076     2.017     2.221
    19  77 Ir       5.936    -0.154   388.027    36.427
    20   1 H        0.977     0.099     1.786     2.088
    21   5 B        2.630     0.401    16.047     6.768
    22   8 O        1.638    -0.407    21.000     6.186
    23   6 C        3.836     0.130    18.453     6.112
    24   6 C        3.755    -0.122    22.899     6.823
    25   1 H        0.925     0.055     2.264     2.353
    26   1 H        0.925     0.045     2.379     2.412
    27   1 H        0.925     0.051     2.308     2.376
    28   6 C        3.754    -0.110    22.657     6.787
    29   1 H        0.925     0.048     2.347     2.396
    30   1 H        0.925     0.041     2.430     2.437
    31   1 H        0.925     0.028     2.611     2.527
    32   6 C        3.841     0.130    18.444     6.109
    33   8 O        1.637    -0.400    20.863     6.166
    34   6 C        3.755    -0.122    22.887     6.822
    35   1 H        0.925     0.051     2.310     2.377
    36   1 H        0.925     0.047     2.363     2.404
    37   1 H        0.925     0.051     2.312     2.378
    38   6 C        3.754    -0.121    22.869     6.819
    39   1 H        0.925     0.047     2.352     2.398
    40   1 H        0.925     0.054     2.274     2.358
    41   1 H        0.925     0.045     2.378     2.412
    42   5 B        2.626     0.401    16.064     6.775
    43   8 O        1.637    -0.380    20.484     6.109
    44   6 C        3.837     0.128    18.480     6.116
    45   6 C        3.755    -0.127    22.994     6.837
    46   1 H        0.925     0.056     2.251     2.346
    47   1 H        0.925     0.057     2.237     2.339
    48   1 H        0.925     0.050     2.321     2.382
    49   6 C        3.755    -0.123    22.915     6.826
    50   1 H        0.925     0.049     2.332     2.388
    51   1 H        0.925     0.047     2.361     2.403
    52   1 H        0.925     0.054     2.270     2.356
    53   6 C        3.833     0.127    18.495     6.119
    54   8 O        1.637    -0.382    20.506     6.113
    55   6 C        3.755    -0.125    22.950     6.831
    56   1 H        0.925     0.055     2.260     2.351
    57   1 H        0.925     0.054     2.271     2.357
    58   1 H        0.925     0.049     2.336     2.390
    59   6 C        3.755    -0.125    22.948     6.831
    60   1 H        0.925     0.045     2.382     2.414
    61   1 H        0.925     0.053     2.278     2.360
    62   1 H        0.925     0.049     2.330     2.387
    63   5 B        2.624     0.398    16.116     6.788
    64   8 O        1.637    -0.377    20.414     6.099
    65   6 C        3.831     0.124    18.539     6.126
    66   6 C        3.755    -0.132    23.095     6.852
    67   1 H        0.925     0.061     2.192     2.315
    68   1 H        0.925     0.054     2.269     2.356
    69   1 H        0.925     0.050     2.315     2.379
    70   6 C        3.755    -0.130    23.048     6.845
    71   1 H        0.925     0.060     2.194     2.317
    72   1 H        0.925     0.051     2.309     2.376
    73   1 H        0.925     0.052     2.296     2.370
    74   6 C        3.828     0.126    18.514     6.122
    75   8 O        1.637    -0.376    20.402     6.097
    76   6 C        3.755    -0.125    22.955     6.832
    77   1 H        0.925     0.051     2.307     2.375
    78   1 H        0.925     0.054     2.268     2.355
    79   1 H        0.925     0.055     2.253     2.347
    80   6 C        3.755    -0.124    22.927     6.828
    81   1 H        0.925     0.041     2.430     2.438
    82   1 H        0.925     0.051     2.310     2.377
    83   1 H        0.925     0.055     2.261     2.351
    84   1 H        0.926     0.053     2.277     2.360
    85   1 H        0.926     0.050     2.317     2.380
    86   6 C        2.835    -0.032    28.793     8.793
    87   6 C        2.918    -0.058    29.433     8.897
    88   6 C        2.929    -0.048    29.185     8.860
    89   6 C        2.965     0.112    25.526     8.287
    90   1 H        0.926     0.045     2.381     2.413
    91   6 C        2.911    -0.063    29.575     8.918
    92   1 H        0.926     0.060     2.196     2.317
    93   6 C        2.970     0.110    25.561     8.293
    94   8 O        1.708    -0.318    19.302     5.932
    95   1 H        0.926     0.060     2.200     2.320
    96   8 O        1.708    -0.313    19.225     5.920
    97   6 C        3.765     0.220    17.198     5.911
    98   1 H        0.923     0.048     2.343     2.394
    99   1 H        0.923     0.048     2.349     2.397

 Mol. C6AA /au·bohr⁶  :     105179.529352
 Mol. C8AA /au·bohr⁸  :    2799548.468775
 Mol. α(0) /au        :        501.628125


Wiberg/Mayer (AO) data.
largest (>0.10) Wiberg bond orders for each atom

 ---------------------------------------------------------------------------
     #   Z sym  total        # sym  WBO       # sym  WBO       # sym  WBO
 ---------------------------------------------------------------------------
     1   7 N    3.397 --     6 C    1.389     2 C    1.313    19 Ir   0.436
     2   6 C    3.979 --     3 C    1.351     1 N    1.313    10 C    1.088
     3   6 C    3.988 --     4 C    1.481     2 C    1.351     9 H    0.962
                             6 C    0.106
     4   6 C    3.985 --     3 C    1.481     5 C    1.385    84 H    0.969
     5   6 C    3.980 --     6 C    1.459     4 C    1.385     8 H    0.968
     6   6 C    3.977 --     5 C    1.459     1 N    1.389     7 H    0.957
                             3 C    0.106
     7   1 H    0.997 --     6 C    0.957
     8   1 H    0.996 --     5 C    0.968
     9   1 H    0.997 --     3 C    0.962
    10   6 C    3.979 --    15 C    1.355    11 N    1.308     2 C    1.088
    11   7 N    3.403 --    12 C    1.391    10 C    1.308    19 Ir   0.424
    12   6 C    3.973 --    13 C    1.454    11 N    1.391    18 H    0.948
                            15 C    0.105
    13   6 C    3.982 --    12 C    1.454    14 C    1.388    17 H    0.969
    14   6 C    3.983 --    15 C    1.477    13 C    1.388    85 H    0.969
    15   6 C    3.989 --    14 C    1.477    10 C    1.355    16 H    0.962
                            12 C    0.105
    16   1 H    0.997 --    15 C    0.962
    17   1 H    0.996 --    13 C    0.969
    18   1 H    0.994 --    12 C    0.948
    19  77 Ir   5.155 --    63 B    0.870    42 B    0.860    21 B    0.742
                            86 C    0.574    20 H    0.527     1 N    0.436
                            11 N    0.424
    20   1 H    0.988 --    19 Ir   0.527    86 C    0.356
    21   5 B    3.277 --    33 O    1.113    22 O    1.091    19 Ir   0.742
    22   8 O    2.192 --    21 B    1.091    23 C    0.943
    23   6 C    3.943 --    24 C    0.997    28 C    0.990    22 O    0.943
                            32 C    0.941
    24   6 C    3.994 --    23 C    0.997    26 H    0.984    27 H    0.983
                            25 H    0.983
    25   1 H    0.997 --    24 C    0.983
    26   1 H    0.997 --    24 C    0.984
    27   1 H    0.997 --    24 C    0.983
    28   6 C    3.997 --    23 C    0.990    31 H    0.985    30 H    0.984
                            29 H    0.984
    29   1 H    0.997 --    28 C    0.984
    30   1 H    0.998 --    28 C    0.984
    31   1 H    0.999 --    28 C    0.985
    32   6 C    3.940 --    38 C    0.997    34 C    0.991    23 C    0.941
                            33 O    0.939
    33   8 O    2.204 --    21 B    1.113    32 C    0.939
    34   6 C    3.994 --    32 C    0.991    36 H    0.984    37 H    0.982
                            35 H    0.982
    35   1 H    0.997 --    34 C    0.982
    36   1 H    0.997 --    34 C    0.984
    37   1 H    0.997 --    34 C    0.982
    38   6 C    3.994 --    32 C    0.997    41 H    0.984    39 H    0.983
                            40 H    0.983
    39   1 H    0.998 --    38 C    0.983
    40   1 H    0.997 --    38 C    0.983
    41   1 H    0.997 --    38 C    0.984
    42   5 B    3.337 --    43 O    1.120    54 O    1.109    19 Ir   0.860
    43   8 O    2.228 --    42 B    1.120    44 C    0.935
    44   6 C    3.936 --    45 C    0.997    49 C    0.991    53 C    0.939
                            43 O    0.935
    45   6 C    3.992 --    44 C    0.997    48 H    0.983    46 H    0.982
                            47 H    0.982
    46   1 H    0.997 --    45 C    0.982
    47   1 H    0.997 --    45 C    0.982
    48   1 H    0.996 --    45 C    0.983
    49   6 C    3.993 --    44 C    0.991    50 H    0.983    51 H    0.982
                            52 H    0.979
    50   1 H    0.997 --    49 C    0.983
    51   1 H    0.998 --    49 C    0.982
    52   1 H    0.997 --    49 C    0.979
    53   6 C    3.938 --    55 C    0.996    59 C    0.991    44 C    0.939
                            54 O    0.934
    54   8 O    2.228 --    42 B    1.109    53 C    0.934
    55   6 C    3.993 --    53 C    0.996    58 H    0.983    57 H    0.983
                            56 H    0.982
    56   1 H    0.997 --    55 C    0.982
    57   1 H    0.997 --    55 C    0.983
    58   1 H    0.996 --    55 C    0.983
    59   6 C    3.994 --    53 C    0.991    62 H    0.983    61 H    0.983
                            60 H    0.982
    60   1 H    0.998 --    59 C    0.982
    61   1 H    0.996 --    59 C    0.983
    62   1 H    0.997 --    59 C    0.983
    63   5 B    3.367 --    75 O    1.123    64 O    1.111    19 Ir   0.870
    64   8 O    2.230 --    63 B    1.111    65 C    0.938
    65   6 C    3.937 --    70 C    0.996    66 C    0.991    64 O    0.938
                            74 C    0.937
    66   6 C    3.992 --    65 C    0.991    69 H    0.983    68 H    0.983
                            67 H    0.978
    67   1 H    0.996 --    66 C    0.978
    68   1 H    0.997 --    66 C    0.983
    69   1 H    0.996 --    66 C    0.983
    70   6 C    3.992 --    65 C    0.996    72 H    0.983    73 H    0.982
                            71 H    0.982
    71   1 H    0.996 --    70 C    0.982
    72   1 H    0.996 --    70 C    0.983
    73   1 H    0.997 --    70 C    0.982
    74   6 C    3.935 --    76 C    0.996    80 C    0.991    65 C    0.937
                            75 O    0.936
    75   8 O    2.238 --    63 B    1.123    74 C    0.936
    76   6 C    3.992 --    74 C    0.996    77 H    0.983    78 H    0.982
                            79 H    0.981
    77   1 H    0.996 --    76 C    0.983
    78   1 H    0.997 --    76 C    0.982
    79   1 H    0.997 --    76 C    0.981
    80   6 C    3.995 --    74 C    0.991    81 H    0.984    83 H    0.983
                            82 H    0.983
    81   1 H    0.998 --    80 C    0.984
    82   1 H    0.997 --    80 C    0.983
    83   1 H    0.996 --    80 C    0.983
    84   1 H    0.996 --     4 C    0.969
    85   1 H    0.996 --    14 C    0.969
    86   6 C    3.942 --    88 C    1.402    87 C    1.356    19 Ir   0.574
                            20 H    0.356
    87   6 C    3.981 --    89 C    1.416    86 C    1.356    90 H    0.962
    88   6 C    3.987 --    91 C    1.412    86 C    1.402    92 H    0.960
    89   6 C    3.914 --    87 C    1.416    93 C    1.308    94 O    1.000
    90   1 H    0.998 --    87 C    0.962
    91   6 C    3.980 --    88 C    1.412    93 C    1.407    95 H    0.965
    92   1 H    0.996 --    88 C    0.960
    93   6 C    3.912 --    91 C    1.407    89 C    1.308    96 O    1.000
    94   8 O    2.162 --    89 C    1.000    97 C    0.978
    95   1 H    0.995 --    91 C    0.965
    96   8 O    2.160 --    93 C    1.000    97 C    0.980
    97   6 C    3.919 --    96 O    0.980    94 O    0.978    98 H    0.962
                            99 H    0.961
    98   1 H    0.997 --    97 C    0.962
    99   1 H    0.997 --    97 C    0.961
 ---------------------------------------------------------------------------

Topologies differ in total number of bonds
Writing topology from bond orders to xtbtopo.mol

molecular dipole:
                 x           y           z       tot (Debye)
 q only:        0.576       0.607      -1.567
   full:       -0.837       0.767      -1.724       5.246
molecular quadrupole (traceless):
                xx          xy          yy          xz          yz          zz
 q only:       17.861      -0.961       0.521       5.810      17.179     -18.383
  q+dip:       18.317       0.917      -2.081       3.382      19.899     -16.237
   full:       15.915       1.999       0.017       1.219      16.771     -15.931


           -------------------------------------------------
          | TOTAL ENERGY             -146.723994389814 Eh   |
          | GRADIENT NORM               0.034172667426 Eh/α |
          | HOMO-LUMO GAP               0.879185652116 eV   |
           -------------------------------------------------

------------------------------------------------------------------------
 * finished run on 2022/01/14 at 13:34:16.642     
------------------------------------------------------------------------
 total:
 * wall-time:     0 d,  0 h,  0 min,  0.118 sec
 *  cpu-time:     0 d,  0 h,  0 min,  0.681 sec
 * ratio c/w:     5.792 speedup
 SCF:
 * wall-time:     0 d,  0 h,  0 min,  0.086 sec
 *  cpu-time:     0 d,  0 h,  0 min,  0.513 sec
 * ratio c/w:     5.945 speedup

