      -----------------------------------------------------------      
     |                   =====================                   |     
     |                           x T B                           |     
     |                   =====================                   |     
     |                         S. Grimme                         |     
     |          Mulliken Center for Theoretical Chemistry        |     
     |                    University of Bonn                     |     
      -----------------------------------------------------------      

   * xtb version 6.4.0 (f63f532) compiled by 'knkr256@seskscpg008.prim.scp' on 2021-04-09

   xtb is free software: you can redistribute it and/or modify it under
   the terms of the GNU Lesser General Public License as published by
   the Free Software Foundation, either version 3 of the License, or
   (at your option) any later version.
   
   xtb is distributed in the hope that it will be useful,
   but WITHOUT ANY WARRANTY; without even the implied warranty of
   MERCHANTABILITY or FITNESS FOR A PARTICULAR PURPOSE.  See the
   GNU Lesser General Public License for more details.
   
   Cite this work as:
   * C. Bannwarth, E. Caldeweyher, S. Ehlert, A. Hansen, P. Pracht,
     J. Seibert, S. Spicher, S. Grimme, WIREs Comput. Mol. Sci., 2020, 11,
     e01493. DOI: 10.1002/wcms.1493
   
   for GFN2-xTB:
   * C. Bannwarth, S. Ehlert and S. Grimme., J. Chem. Theory Comput., 2019,
     15, 1652-1671. DOI: 10.1021/acs.jctc.8b01176
   for GFN1-xTB:
   * S. Grimme, C. Bannwarth, P. Shushkov, J. Chem. Theory Comput., 2017,
     13, 1989-2009. DOI: 10.1021/acs.jctc.7b00118
   for GFN0-xTB:
   * P. Pracht, E. Caldeweyher, S. Ehlert, S. Grimme, ChemRxiv, 2019, preprint.
     DOI: 10.26434/chemrxiv.8326202.v1
   for GFN-FF:
   * S. Spicher and S. Grimme, Angew. Chem. Int. Ed., 2020, 59, 15665-15673.
     DOI: 10.1002/anie.202004239
   
   for DFT-D4:
   * E. Caldeweyher, C. Bannwarth and S. Grimme, J. Chem. Phys., 2017,
     147, 034112. DOI: 10.1063/1.4993215
   * E. Caldeweyher, S. Ehlert, A. Hansen, H. Neugebauer, S. Spicher,
     C. Bannwarth and S. Grimme, J. Chem. Phys., 2019, 150, 154122.
     DOI: 10.1063/1.5090222
   * E. Caldeweyher, J.-M. Mewes, S. Ehlert and S. Grimme, Phys. Chem. Chem. Phys.
     2020, 22, 8499-8512. DOI: 10.1039/D0CP00502A
   
   for sTDA-xTB:
   * S. Grimme and C. Bannwarth, J. Chem. Phys., 2016, 145, 054103.
     DOI: 10.1063/1.4959605
   
   in the mass-spec context:
   * V. Asgeirsson, C. Bauer and S. Grimme, Chem. Sci., 2017, 8, 4879.
     DOI: 10.1039/c7sc00601b
   * J. Koopman and S. Grimme, ACS Omega 2019, 4, 12, 15120-15133.
     DOI: 10.1021/acsomega.9b02011
   
   for metadynamics refer to:
   * S. Grimme, J. Chem. Theory Comput., 2019, 155, 2847-2862
     DOI: 10.1021/acs.jctc.9b00143
   
   for SPH calculations refer to:
   * S. Spicher and S. Grimme, J. Chem. Theory Comput., 2021, 17, 1701-1714
     DOI: 10.1021/acs.jctc.0c01306
   
   with help from (in alphabetical order)
   P. Atkinson, C. Bannwarth, F. Bohle, G. Brandenburg, E. Caldeweyher
   M. Checinski, S. Dohm, S. Ehlert, S. Ehrlich, I. Gerasimov, J. Koopman
   C. Lavinge, S. Lehtola, F. März, M. Müller, F. Musil, H. Neugebauer
   J. Pisarek, P. Pracht, J. Seibert, P. Shushkov, S. Spicher, M. Stahn
   T. Strunk, J. Stückrath, T. Rose, and J. Unsleber
   
 * started run on 2021/10/08 at 07:16:26.535     

           -------------------------------------------------
          |                Calculation Setup                |
           -------------------------------------------------

          program call               : xtb xtbopt.xyz --sp --alpb thf -P 6
          hostname                   : seskscpg010.prim.scp
          coordinate file            : xtbopt.xyz
          omp threads                :                     6
          number of atoms            :                   106
          number of electrons        :                   280
          charge                     :                     0
          spin                       :                   0.0
          first test random number   :      0.07164798448332

   ID    Z sym.   atoms
    1    7 N      1, 11, 91, 96
    2    6 C      2-6, 10, 12-15, 23, 24, 28, 32, 34, 38, 44, 45, 49, 53, 55,
                  59, 65, 66, 70, 74, 76, 80, 86-89, 93, 95, 99-101, 103
    3    1 H      7-9, 16-18, 20, 25-27, 29-31, 35-37, 39-41, 46-48, 50-52,
                  56-58, 60-62, 67-69, 71-73, 77-79, 81-85, 90, 92, 94, 97,
                  98, 102, 104-106
    4   77 Ir     19
    5    5 B      21, 42, 63
    6    8 O      22, 33, 43, 54, 64, 75

molecular fragmentation (1/2 indicates fragments):
111111111111111111111111111111111111111111111111111111111111111111111111
1111111111111222222222222222222222
# atoms in fragment 1/2:    85    21
 fragment masses (1/2) :      730.32      157.19
CMA distance (Bohr)    :  12.391
constraining FC (au)   :  0.0500

           -------------------------------------------------
          |                 G F N 2 - x T B                 |
           -------------------------------------------------

        Reference                      10.1021/acs.jctc.8b01176
      * Hamiltonian:
        H0-scaling (s, p, d)           1.850000    2.230000    2.230000
        zeta-weighting                 0.500000
      * Dispersion:
        s8                             2.700000
        a1                             0.520000
        a2                             5.000000
        s9                             5.000000
      * Repulsion:
        kExp                           1.500000    1.000000
        rExp                           1.000000
      * Coulomb:
        alpha                          2.000000
        third order                    shell-resolved
        anisotropic                    true
        a3                             3.000000
        a5                             4.000000
        cn-shift                       1.200000
        cn-exp                         4.000000
        max-rad                        5.000000

      * Solvation model:               ALPB
        Solvent                        thf
        Parameter file                 internal GFN2-xTB/ALPB
        Dielectric constant                7.6000E+00
        Reference state                gsolv [1 M gas/solution]
        Free energy shift                  5.3248E-03 Eh       3.3414E+00 kcal/mol
        Temperature                        2.9815E+02 K
        Density                            8.8300E-01 kg/L
        Solvent mass                       7.2106E+01 g/mol
        Interaction kernel             P16
        Born radius scaling (c1)           1.7311E+00
        Born radii integrator          GBOBC
        Born offset                        0.0000E+00 a0       0.0000E+00 AA
        H-bond correction              true
        Ion screening                  false
        Surface tension                    1.0000E-05 Eh       1.5569E+01 dyn/cm
        Grid points                               230 per atom
q/qsh data taken from xtbrestart
CAMM data taken from xtbrestart

          ...................................................
          :                      SETUP                      :
          :.................................................:
          :  # basis functions                 268          :
          :  # atomic orbitals                 267          :
          :  # shells                          159          :
          :  # electrons                       280          :
          :  max. iterations                   250          :
          :  Hamiltonian                  GFN2-xTB          :
          :  restarted?                       true          :
          :  GBSA solvation                   true          :
          :  PC potential                    false          :
          :  electronic temp.          300.0000000     K    :
          :  accuracy                    1.0000000          :
          :  -> integral cutoff          0.2500000E+02      :
          :  -> integral neglect         0.1000000E-07      :
          :  -> SCF convergence          0.1000000E-05 Eh   :
          :  -> wf. convergence          0.1000000E-03 e    :
          :  Broyden damping             0.4000000          :
          ...................................................

 iter      E             dE          RMSdq      gap      omega  full diag
   1   -154.9246526 -0.154925E+03  0.104E-04    0.90       0.0  T
   2   -154.9246526  0.323328E-08  0.185E-04    0.90      52.5  T
   3   -154.9246526 -0.365978E-08  0.554E-05    0.90     175.2  T

   *** convergence criteria satisfied after 3 iterations ***

         #    Occupation            Energy/Eh            Energy/eV
      -------------------------------------------------------------
         1        2.0000           -0.6765217             -18.4091
       ...           ...                  ...                  ...
       134        2.0000           -0.3563716              -9.6974
       135        2.0000           -0.3475454              -9.4572
       136        2.0000           -0.3352750              -9.1233
       137        2.0000           -0.3260435              -8.8721
       138        2.0000           -0.3213863              -8.7454
       139        2.0000           -0.3142657              -8.5516
       140        2.0000           -0.3119352              -8.4882 (HOMO)
       141                         -0.2787551              -7.5853 (LUMO)
       142                         -0.2512695              -6.8374
       143                         -0.2483773              -6.7587
       144                         -0.2345950              -6.3837
       145                         -0.2246722              -6.1136
       ...                                ...                  ...
       267                          3.6862674             100.3084
      -------------------------------------------------------------
                  HL-Gap            0.0331801 Eh            0.9029 eV
             Fermi-level           -0.2953060 Eh           -8.0357 eV

 SCC (total)                   0 d,  0 h,  0 min,  0.112 sec
 SCC setup                      ...        0 min,  0.002 sec (  2.025%)
 Dispersion                     ...        0 min,  0.002 sec (  1.746%)
 classical contributions        ...        0 min,  0.000 sec (  0.141%)
 integral evaluation            ...        0 min,  0.031 sec ( 27.637%)
 iterations                     ...        0 min,  0.035 sec ( 30.792%)
 molecular gradient             ...        0 min,  0.042 sec ( 37.043%)
 printout                       ...        0 min,  0.001 sec (  0.568%)

         :::::::::::::::::::::::::::::::::::::::::::::::::::::
         ::                     SUMMARY                     ::
         :::::::::::::::::::::::::::::::::::::::::::::::::::::
         :: total energy            -152.898790568357 Eh    ::
         :: total w/o Gsasa/hb      -152.853826684779 Eh    ::
         :: gradient norm              0.034273049180 Eh/a0 ::
         :: HOMO-LUMO gap              0.902876260603 eV    ::
         ::.................................................::
         :: SCC energy              -154.924652560549 Eh    ::
         :: -> isotropic ES            0.245001412450 Eh    ::
         :: -> anisotropic ES          0.015856733567 Eh    ::
         :: -> anisotropic XC          0.060462417708 Eh    ::
         :: -> dispersion             -0.144736561797 Eh    ::
         :: -> Gsolv                  -0.055390671003 Eh    ::
         ::    -> Gelec               -0.010426787425 Eh    ::
         ::    -> Gsasa               -0.047568401068 Eh    ::
         ::    -> Ghb                 -0.002720297955 Eh    ::
         ::    -> Gshift               0.005324815444 Eh    ::
         :: repulsion energy           2.018029228689 Eh    ::
         :: add. restraining           0.000000000000 Eh    ::
         :: total charge               0.000000000003 e     ::
         :::::::::::::::::::::::::::::::::::::::::::::::::::::

           -------------------------------------------------
          |                Property Printout                |
           -------------------------------------------------

    * Orbital Energies and Occupations

         #    Occupation            Energy/Eh            Energy/eV
      -------------------------------------------------------------
         1        2.0000           -0.6765217             -18.4091
       ...           ...                  ...                  ...
       128        2.0000           -0.3911039             -10.6425
       129        2.0000           -0.3882029             -10.5635
       130        2.0000           -0.3839842             -10.4487
       131        2.0000           -0.3828958             -10.4191
       132        2.0000           -0.3727824             -10.1439
       133        2.0000           -0.3614259              -9.8349
       134        2.0000           -0.3563716              -9.6974
       135        2.0000           -0.3475454              -9.4572
       136        2.0000           -0.3352750              -9.1233
       137        2.0000           -0.3260435              -8.8721
       138        2.0000           -0.3213863              -8.7454
       139        2.0000           -0.3142657              -8.5516
       140        2.0000           -0.3119352              -8.4882 (HOMO)
       141                         -0.2787551              -7.5853 (LUMO)
       142                         -0.2512695              -6.8374
       143                         -0.2483773              -6.7587
       144                         -0.2345950              -6.3837
       145                         -0.2246722              -6.1136
       146                         -0.2078870              -5.6569
       147                         -0.1944961              -5.2925
       148                         -0.1703288              -4.6349
       149                         -0.1521164              -4.1393
       150                         -0.1293283              -3.5192
       151                         -0.1273257              -3.4647
       ...                                ...                  ...
       267                          3.6862674             100.3084
      -------------------------------------------------------------
                  HL-Gap            0.0331801 Eh            0.9029 eV
             Fermi-level           -0.2953060 Eh           -8.0357 eV

     #   Z          covCN         q      C6AA      α(0)
     1   7 N        2.540    -0.121    23.676     7.226
     2   6 C        2.956     0.079    26.246     8.403
     3   6 C        2.918    -0.041    29.029     8.835
     4   6 C        2.924    -0.021    28.538     8.760
     5   6 C        2.915    -0.042    29.047     8.838
     6   6 C        2.893     0.049    26.899     8.503
     7   1 H        0.926     0.053     2.277     2.360
     8   1 H        0.926     0.058     2.227     2.334
     9   1 H        0.926     0.048     2.346     2.395
    10   6 C        2.954     0.075    26.330     8.416
    11   7 N        2.559    -0.125    23.747     7.237
    12   6 C        2.890     0.042    27.049     8.527
    13   6 C        2.915    -0.045    29.107     8.847
    14   6 C        2.922    -0.023    28.586     8.768
    15   6 C        2.918    -0.045    29.121     8.849
    16   1 H        0.926     0.049     2.337     2.391
    17   1 H        0.926     0.053     2.279     2.361
    18   1 H        0.926     0.075     2.031     2.229
    19  77 Ir       5.935    -0.154   388.031    36.427
    20   1 H        0.977     0.084     1.938     2.175
    21   5 B        2.628     0.402    16.049     6.770
    22   8 O        1.638    -0.410    21.055     6.194
    23   6 C        3.836     0.130    18.443     6.110
    24   6 C        3.755    -0.122    22.888     6.822
    25   1 H        0.925     0.054     2.272     2.357
    26   1 H        0.925     0.045     2.379     2.412
    27   1 H        0.925     0.051     2.311     2.377
    28   6 C        3.754    -0.109    22.641     6.785
    29   1 H        0.925     0.048     2.349     2.397
    30   1 H        0.925     0.041     2.435     2.440
    31   1 H        0.925     0.028     2.615     2.529
    32   6 C        3.840     0.131    18.437     6.108
    33   8 O        1.637    -0.402    20.895     6.170
    34   6 C        3.755    -0.120    22.848     6.816
    35   1 H        0.925     0.047     2.354     2.399
    36   1 H        0.925     0.047     2.355     2.400
    37   1 H        0.925     0.050     2.316     2.380
    38   6 C        3.754    -0.120    22.853     6.816
    39   1 H        0.925     0.047     2.352     2.399
    40   1 H        0.925     0.053     2.280     2.361
    41   1 H        0.925     0.045     2.378     2.412
    42   5 B        2.626     0.405    16.024     6.767
    43   8 O        1.637    -0.381    20.495     6.111
    44   6 C        3.836     0.128    18.474     6.115
    45   6 C        3.755    -0.127    22.996     6.838
    46   1 H        0.925     0.057     2.240     2.341
    47   1 H        0.925     0.057     2.234     2.337
    48   1 H        0.925     0.051     2.314     2.379
    49   6 C        3.755    -0.122    22.899     6.823
    50   1 H        0.925     0.050     2.326     2.385
    51   1 H        0.925     0.046     2.367     2.406
    52   1 H        0.925     0.053     2.284     2.363
    53   6 C        3.832     0.128    18.490     6.118
    54   8 O        1.637    -0.384    20.548     6.119
    55   6 C        3.755    -0.124    22.938     6.829
    56   1 H        0.925     0.054     2.276     2.359
    57   1 H        0.925     0.054     2.268     2.355
    58   1 H        0.925     0.049     2.330     2.387
    59   6 C        3.755    -0.125    22.952     6.831
    60   1 H        0.925     0.048     2.347     2.396
    61   1 H        0.925     0.054     2.274     2.358
    62   1 H        0.925     0.050     2.325     2.385
    63   5 B        2.626     0.399    16.093     6.781
    64   8 O        1.637    -0.378    20.434     6.102
    65   6 C        3.833     0.125    18.526     6.124
    66   6 C        3.755    -0.131    23.066     6.848
    67   1 H        0.925     0.059     2.206     2.323
    68   1 H        0.925     0.054     2.267     2.354
    69   1 H        0.925     0.050     2.317     2.380
    70   6 C        3.755    -0.129    23.035     6.844
    71   1 H        0.925     0.060     2.196     2.317
    72   1 H        0.925     0.051     2.307     2.375
    73   1 H        0.925     0.052     2.298     2.371
    74   6 C        3.828     0.126    18.512     6.122
    75   8 O        1.637    -0.380    20.484     6.109
    76   6 C        3.755    -0.124    22.940     6.829
    77   1 H        0.925     0.051     2.308     2.376
    78   1 H        0.925     0.053     2.281     2.362
    79   1 H        0.925     0.055     2.261     2.351
    80   6 C        3.755    -0.123    22.918     6.826
    81   1 H        0.925     0.040     2.445     2.445
    82   1 H        0.925     0.052     2.298     2.370
    83   1 H        0.925     0.055     2.264     2.353
    84   1 H        0.926     0.055     2.262     2.352
    85   1 H        0.926     0.053     2.288     2.365
    86   6 C        2.824    -0.037    28.900     8.809
    87   6 C        2.932    -0.016    28.406     8.741
    88   6 C        2.908     0.053    26.807     8.490
    89   6 C        2.912    -0.053    29.324     8.880
    90   1 H        0.925     0.027     2.624     2.533
    91   7 N        1.840    -0.251    27.384     7.755
    92   1 H        0.925     0.043     2.411     2.428
    93   6 C        2.956     0.079    26.229     8.400
    94   1 H        0.926     0.035     2.517     2.481
    95   6 C        3.749    -0.023    21.045     6.543
    96   7 N        2.863    -0.001    21.275     6.850
    97   1 H        0.924     0.065     2.138     2.287
    98   1 H        0.924     0.080     1.980     2.200
    99   6 C        3.062    -0.030    28.694     8.784
   100   6 C        3.062    -0.028    28.648     8.777
   101   6 C        3.058    -0.075    29.814     8.954
   102   1 H        0.926     0.023     2.690     2.565
   103   6 C        3.060    -0.074    29.789     8.950
   104   1 H        0.926     0.031     2.572     2.508
   105   1 H        0.926     0.013     2.846     2.638
   106   1 H        0.926     0.013     2.842     2.636

 Mol. C6AA /au·bohr⁶  :     121709.443452
 Mol. C8AA /au·bohr⁸  :    3216633.172778
 Mol. α(0) /au        :        542.226743


Wiberg/Mayer (AO) data.
largest (>0.10) Wiberg bond orders for each atom

 ---------------------------------------------------------------------------
     #   Z sym  total        # sym  WBO       # sym  WBO       # sym  WBO
 ---------------------------------------------------------------------------
     1   7 N    3.397 --     6 C    1.388     2 C    1.313    19 Ir   0.438
     2   6 C    3.978 --     3 C    1.352     1 N    1.313    10 C    1.087
     3   6 C    3.988 --     4 C    1.480     2 C    1.352     9 H    0.962
                             6 C    0.106
     4   6 C    3.984 --     3 C    1.480     5 C    1.386    84 H    0.969
     5   6 C    3.980 --     6 C    1.458     4 C    1.386     8 H    0.968
     6   6 C    3.977 --     5 C    1.458     1 N    1.388     7 H    0.957
                             3 C    0.106
     7   1 H    0.997 --     6 C    0.957
     8   1 H    0.996 --     5 C    0.968
     9   1 H    0.997 --     3 C    0.962
    10   6 C    3.979 --    15 C    1.355    11 N    1.307     2 C    1.087
    11   7 N    3.413 --    12 C    1.387    10 C    1.307    19 Ir   0.438
    12   6 C    3.973 --    13 C    1.456    11 N    1.387    18 H    0.948
                            15 C    0.105
    13   6 C    3.981 --    12 C    1.456    14 C    1.387    17 H    0.969
    14   6 C    3.983 --    15 C    1.477    13 C    1.387    85 H    0.969
    15   6 C    3.988 --    14 C    1.477    10 C    1.355    16 H    0.962
                            12 C    0.105
    16   1 H    0.997 --    15 C    0.962
    17   1 H    0.996 --    13 C    0.969
    18   1 H    0.994 --    12 C    0.948
    19  77 Ir   5.185 --    63 B    0.866    42 B    0.851    21 B    0.729
                            86 C    0.598    20 H    0.536     1 N    0.438
                            11 N    0.438
    20   1 H    0.989 --    19 Ir   0.536    86 C    0.344
    21   5 B    3.270 --    33 O    1.114    22 O    1.089    19 Ir   0.729
    22   8 O    2.189 --    21 B    1.089    23 C    0.943
    23   6 C    3.943 --    24 C    0.997    28 C    0.990    22 O    0.943
                            32 C    0.941
    24   6 C    3.994 --    23 C    0.997    26 H    0.984    27 H    0.983
                            25 H    0.983
    25   1 H    0.997 --    24 C    0.983
    26   1 H    0.997 --    24 C    0.984
    27   1 H    0.997 --    24 C    0.983
    28   6 C    3.997 --    23 C    0.990    31 H    0.985    30 H    0.984
                            29 H    0.984
    29   1 H    0.997 --    28 C    0.984
    30   1 H    0.998 --    28 C    0.984
    31   1 H    0.999 --    28 C    0.985
    32   6 C    3.940 --    38 C    0.997    34 C    0.991    23 C    0.941
                            33 O    0.939
    33   8 O    2.204 --    21 B    1.114    32 C    0.939
    34   6 C    3.994 --    32 C    0.991    36 H    0.984    35 H    0.983
                            37 H    0.982
    35   1 H    0.998 --    34 C    0.983
    36   1 H    0.997 --    34 C    0.984
    37   1 H    0.997 --    34 C    0.982
    38   6 C    3.994 --    32 C    0.997    41 H    0.984    39 H    0.983
                            40 H    0.983
    39   1 H    0.998 --    38 C    0.983
    40   1 H    0.997 --    38 C    0.983
    41   1 H    0.997 --    38 C    0.984
    42   5 B    3.339 --    43 O    1.125    54 O    1.108    19 Ir   0.851
    43   8 O    2.230 --    42 B    1.125    44 C    0.934
    44   6 C    3.935 --    45 C    0.997    49 C    0.991    53 C    0.939
                            43 O    0.934
    45   6 C    3.992 --    44 C    0.997    48 H    0.983    46 H    0.982
                            47 H    0.981
    46   1 H    0.997 --    45 C    0.982
    47   1 H    0.996 --    45 C    0.981
    48   1 H    0.996 --    45 C    0.983
    49   6 C    3.994 --    44 C    0.991    50 H    0.983    51 H    0.983
                            52 H    0.980
    50   1 H    0.997 --    49 C    0.983
    51   1 H    0.998 --    49 C    0.983
    52   1 H    0.997 --    49 C    0.980
    53   6 C    3.937 --    55 C    0.996    59 C    0.992    44 C    0.939
                            54 O    0.933
    54   8 O    2.226 --    42 B    1.108    53 C    0.933
    55   6 C    3.993 --    53 C    0.996    58 H    0.983    57 H    0.983
                            56 H    0.982
    56   1 H    0.997 --    55 C    0.982
    57   1 H    0.997 --    55 C    0.983
    58   1 H    0.996 --    55 C    0.983
    59   6 C    3.994 --    53 C    0.992    62 H    0.983    61 H    0.983
                            60 H    0.982
    60   1 H    0.998 --    59 C    0.982
    61   1 H    0.996 --    59 C    0.983
    62   1 H    0.997 --    59 C    0.983
    63   5 B    3.361 --    75 O    1.118    64 O    1.116    19 Ir   0.866
    64   8 O    2.230 --    63 B    1.116    65 C    0.937
    65   6 C    3.936 --    70 C    0.996    66 C    0.991    64 O    0.937
                            74 C    0.937
    66   6 C    3.992 --    65 C    0.991    69 H    0.983    68 H    0.982
                            67 H    0.978
    67   1 H    0.996 --    66 C    0.978
    68   1 H    0.997 --    66 C    0.982
    69   1 H    0.996 --    66 C    0.983
    70   6 C    3.992 --    65 C    0.996    72 H    0.983    73 H    0.982
                            71 H    0.982
    71   1 H    0.996 --    70 C    0.982
    72   1 H    0.996 --    70 C    0.983
    73   1 H    0.997 --    70 C    0.982
    74   6 C    3.935 --    76 C    0.996    80 C    0.992    65 C    0.937
                            75 O    0.936
    75   8 O    2.233 --    63 B    1.118    74 C    0.936
    76   6 C    3.993 --    74 C    0.996    77 H    0.983    78 H    0.982
                            79 H    0.982
    77   1 H    0.996 --    76 C    0.983
    78   1 H    0.997 --    76 C    0.982
    79   1 H    0.997 --    76 C    0.982
    80   6 C    3.995 --    74 C    0.992    81 H    0.984    83 H    0.983
                            82 H    0.983
    81   1 H    0.998 --    80 C    0.984
    82   1 H    0.997 --    80 C    0.983
    83   1 H    0.996 --    80 C    0.983
    84   1 H    0.996 --     4 C    0.969
    85   1 H    0.996 --    14 C    0.969
    86   6 C    3.943 --    87 C    1.387    88 C    1.355    19 Ir   0.598
                            20 H    0.344
    87   6 C    3.990 --    89 C    1.438    86 C    1.387    90 H    0.965
    88   6 C    3.978 --    91 N    1.453    86 C    1.355    92 H    0.954
                            89 C    0.106
    89   6 C    3.988 --    87 C    1.438    93 C    1.405    94 H    0.967
                            88 C    0.106
    90   1 H    0.999 --    87 C    0.965
    91   7 N    3.057 --    88 C    1.453    93 C    1.391
    92   1 H    0.998 --    88 C    0.954
    93   6 C    3.975 --    89 C    1.405    91 N    1.391    95 C    0.984
    94   1 H    0.998 --    89 C    0.967
    95   6 C    3.970 --    93 C    0.984    96 N    0.984    97 H    0.965
                            98 H    0.964
    96   7 N    3.638 --   100 C    1.230    99 C    1.228    95 C    0.984
    97   1 H    0.995 --    95 C    0.965
    98   1 H    0.993 --    95 C    0.964
    99   6 C    3.941 --   101 C    1.543    96 N    1.228   102 H    0.970
                           100 C    0.130
   100   6 C    3.945 --   103 C    1.548    96 N    1.230   104 H    0.970
                            99 C    0.130
   101   6 C    3.977 --    99 C    1.543   103 C    1.333   105 H    0.975
   102   1 H    0.999 --    99 C    0.970
   103   6 C    3.978 --   100 C    1.548   101 C    1.333   106 H    0.976
   104   1 H    0.999 --   100 C    0.970
   105   1 H    1.000 --   101 C    0.975
   106   1 H    0.999 --   103 C    0.976
 ---------------------------------------------------------------------------

Topologies differ in total number of bonds
Writing topology from bond orders to xtbtopo.mol

molecular dipole:
                 x           y           z       tot (Debye)
 q only:       -0.259       1.541      -1.665
   full:       -1.705       1.797      -2.355       8.687
molecular quadrupole (traceless):
                xx          xy          yy          xz          yz          zz
 q only:       26.408       1.713     -12.663      -2.005      38.083     -13.745
  q+dip:       33.544       4.540     -13.714      -7.915      44.320     -19.831
   full:       29.824       5.062     -10.380      -9.556      41.565     -19.444


           -------------------------------------------------
          | TOTAL ENERGY             -152.898790568357 Eh   |
          | GRADIENT NORM               0.034273049180 Eh/α |
          | HOMO-LUMO GAP               0.902876260603 eV   |
           -------------------------------------------------

------------------------------------------------------------------------
 * finished run on 2021/10/08 at 07:16:26.693     
------------------------------------------------------------------------
 total:
 * wall-time:     0 d,  0 h,  0 min,  0.158 sec
 *  cpu-time:     0 d,  0 h,  0 min,  0.921 sec
 * ratio c/w:     5.846 speedup
 SCF:
 * wall-time:     0 d,  0 h,  0 min,  0.114 sec
 *  cpu-time:     0 d,  0 h,  0 min,  0.679 sec
 * ratio c/w:     5.973 speedup

