106
 energy: -152.885679109357 gnorm: 0.076018403954 xtb: 6.4.0 (f63f532)
N        -0.96509999999999   -2.11530000000006   -0.24089999999999
C        -2.24699999999998   -1.69839999999997   -0.36219999999998
C        -3.14040000000003   -2.36820000000004   -1.21200000000003
C        -2.70220000000006   -3.47559999999995   -1.93050000000007
C        -1.37780000000003   -3.89879999999996   -1.78759999999999
C        -0.54290000000003   -3.18670000000006   -0.93509999999991
H         0.49810000000001   -3.45630000000000   -0.78940000000002
H        -0.99570000000002   -4.76029999999997   -2.32770000000004
H        -4.16500000000001   -2.02889999999999   -1.31829999999999
C        -2.62130000000000   -0.50950000000002    0.44099999999999
N        -1.62599999999999    0.07330000000002    1.16020000000000
C        -1.89680000000000    1.15240000000003    1.91689999999997
C        -3.17230000000000    1.70329999999996    1.99649999999996
C        -4.20510000000000    1.11739999999993    1.26270000000004
C        -3.92610000000002    0.00249999999995    0.47819999999999
H        -4.71960000000002   -0.46419999999999   -0.09520000000000
H        -3.34630000000000    2.57510000000007    2.62070000000001
H        -1.04450000000001    1.57419999999999    2.43690000000000
Ir        0.42150000000000   -0.81650000000000    0.91330000000000
H         0.87260000000000   -2.23030000000000    1.54050000000000
B         0.50670000000000    0.41559999999988   -0.81540000000002
O         0.19500000000000   -0.04699999999999   -2.09150000000002
C         0.00650000000001    1.10039999999991   -2.95429999999992
C         0.49020000000000    0.74740000000007   -4.35780000000007
H         1.51609999999999    0.37380000000003   -4.33700000000000
H         0.44729999999999    1.62240000000009   -5.01670000000001
H        -0.14740000000005   -0.03390000000001   -4.78430000000001
C        -1.50120000000004    1.39559999999989   -2.96669999999991
H        -1.75370000000000    2.21460000000007   -3.64850000000001
H        -2.03199999999994    0.49450000000005   -3.28930000000001
H        -1.85170000000000    1.65210000000001   -1.96219999999998
C         0.84229999999999    2.20670000000000   -2.22039999999991
O         0.75200000000001    1.78260000000002   -0.83689999999999
C         2.32930000000002    2.18620000000004   -2.59899999999995
H         2.74129999999996    1.18499999999997   -2.45750000000001
H         2.48870000000000    2.51299999999999   -3.63179999999998
H         2.87200000000000    2.86269999999999   -1.93200000000000
C         0.28439999999999    3.62289999999991   -2.33659999999980
H        -0.72650000000000    3.69040000000000   -1.92910000000000
H         0.92129999999995    4.31480000000007   -1.77609999999996
H         0.26430000000000    3.94809999999998   -3.38320000000004
B         1.56300000000000    0.60960000000001    1.84839999999998
O         2.92779999999998    0.55230000000007    2.15020000000001
C         3.36329999999997    1.88659999999996    2.50260000000009
C         4.53140000000004    1.78590000000006    3.47740000000000
H         4.27910000000000    1.16090000000000    4.33690000000005
H         5.39390000000000    1.33790000000002    2.97340000000004
H         4.82389999999997    2.77869999999997    3.83820000000002
C         3.79699999999999    2.56850000000001    1.19670000000007
H         4.20020000000000    3.57089999999998    1.37679999999999
H         4.56740000000000    1.95560000000000    0.72109999999997
H         2.95240000000003    2.63260000000000    0.50539999999999
C         2.05039999999998    2.50089999999994    3.09320000000000
O         1.03750000000002    1.81619999999996    2.31909999999998
C         1.89099999999995    4.00450000000006    2.88649999999999
H         1.87289999999999    4.25439999999999    1.82410000000010
H         0.94939999999999    4.34259999999999    3.33169999999998
H         2.71079999999999    4.55149999999996    3.36629999999999
C         1.82469999999995    2.13200000000010    4.56520000000008
H         1.92610000000001    1.05330000000002    4.71319999999999
H         2.52609999999999    2.65280000000002    5.22539999999995
H         0.80629999999998    2.41579999999998    4.84900000000000
B         2.27820000000000   -1.33090000000001    0.17410000000002
O         2.89459999999998   -2.57739999999999    0.38450000000002
C         4.26930000000009   -2.48200000000000   -0.07209999999995
C         5.10900000000001   -2.05379999999990    1.14010000000009
H         4.76350000000000   -1.08739999999995    1.51750000000001
H         4.98050000000000   -2.79469999999998    1.93589999999998
H         6.17420000000001   -1.99290000000000    0.89300000000000
C         4.71949999999995   -3.84659999999999   -0.58469999999990
H         4.75280000000000   -4.56130000000004    0.24419999999996
H         5.72330000000006   -3.78370000000000   -1.02009999999997
H         4.03500000000002   -4.23599999999995   -1.34170000000004
C         4.16440000000000   -1.36220000000000   -1.16299999999998
O         3.08520000000004   -0.55029999999999   -0.65400000000000
C         5.40720000000000   -0.48870000000000   -1.31550000000002
H         6.27320000000000   -1.09009999999998   -1.61529999999999
H         5.23299999999999    0.26929999999999   -2.08590000000000
H         5.64269999999999    0.02649999999999   -0.38239999999998
C         3.71799999999993   -1.89830000000009   -2.53109999999987
H         2.82529999999994   -2.52160000000005   -2.42739999999999
H         3.46090000000000   -1.05250000000003   -3.17550000000005
H         4.50569999999992   -2.48289999999995   -3.01790000000002
H        -3.38499999999998   -4.00129999999999   -2.59310000000006
H        -5.21400000000001    1.52079999999999    1.29960000000000
C         0.23589999999992   -1.68140000000000    2.96030000000002
C        -0.99248771952614   -2.17803242929331    3.39269269311883
C         1.24647138373276   -1.64540693860880    3.92002456381653
C        -1.15988771483145   -2.58900309971614    4.70865404684542
H        -1.82610079933328   -2.27593058756119    2.70708599008480
N         1.10977801297339   -2.04571525738096    5.18018982078796
H         2.24015759677080   -1.30374122597729    3.65574809932777
C        -0.07204857155560   -2.53484064328060    5.57138257825689
H        -2.10757505387772   -2.98603366012471    5.04882702939678
C        -0.10650143640717   -3.13618249311728    6.95448000804297
N         0.11882072565243   -4.56559567824405    6.86613975720807
H        -1.07470304498419   -2.96903708153385    7.43391829412284
H         0.69049595480558   -2.68504240936937    7.55427895822285
C        -0.80507999103697   -5.54374975165289    7.07479854780056
C         1.28788493151078   -5.14553571473101    6.47525580130043
C        -0.21892504592091   -6.75949724758638    6.83245768807448
H        -1.80511242068953   -5.30806288702604    7.39449472505223
C         1.11367354016693   -6.50467821453882    6.44801335732995
H         2.14725607575071   -4.54370909858868    6.23777620757319
H        -0.68823982481731   -7.72419451757608    6.92121850591633
H         1.85604356099308   -7.23889274622998    6.18508174563411
106
 energy: -152.892112787585 gnorm: 0.046267545906 xtb: 6.4.0 (f63f532)
N        -0.96213324676116   -2.10088923009333   -0.25075539333712
C        -2.24011393733896   -1.69048871874811   -0.36406371654763
C        -3.13470629640711   -2.36178729537671   -1.20637730629204
C        -2.70422602478028   -3.46342234482283   -1.92192599737245
C        -1.38442645972648   -3.88236544354816   -1.78259670704915
C        -0.55413041122284   -3.16805107402830   -0.94065354972448
H         0.47945560643334   -3.44836546384067   -0.79064635823928
H        -1.00806584235076   -4.74256196853690   -2.31745928622349
H        -4.15515629361358   -2.02636419470613   -1.31047848553097
C        -2.61167167007477   -0.51372302184250    0.43661573601110
N        -1.61967887819452    0.06555684746533    1.14958824163149
C        -1.89773315165594    1.13812854136985    1.89497420673561
C        -3.16459980958369    1.68779795020120    1.98210978164163
C        -4.19582702828324    1.10355904460880    1.25539544083009
C        -3.91442604534575   -0.00326539830166    0.47545390103233
H        -4.70553331612609   -0.46623737138288   -0.09409666624585
H        -3.33937459006100    2.55150403711814    2.60807315496351
H        -1.05437566707265    1.55711524591754    2.42306414480003
Ir        0.42150000000000   -0.81650000000000    0.91330000000000
H         0.87260000000000   -2.23030000000000    1.54050000000000
B         0.49114249815478    0.42412415723330   -0.78996011501657
O         0.17519053461680   -0.03556731272271   -2.06179832361296
C         0.01092342516474    1.09603751076616   -2.94318610604637
C         0.49019065257092    0.74627548072704   -4.34798353953271
H         1.50912559440279    0.36956424152034   -4.32659167051502
H         0.44546793615968    1.62169316741895   -4.99644773072355
H        -0.14857336651945   -0.02957265375844   -4.76854817864229
C        -1.49314094256291    1.39867080632851   -2.97003883723685
H        -1.73104847836487    2.21146757358288   -3.65449794292631
H        -2.02314112701916    0.50162128033787   -3.29012135656515
H        -1.83997347358907    1.65391247540492   -1.96858653786443
C         0.83246401291362    2.20626109238537   -2.21218031068693
O         0.75558322080369    1.77968835740870   -0.83477951081165
C         2.31491104391146    2.19007783329048   -2.59974635676451
H         2.71933751348882    1.19107656568984   -2.44968826542388
H         2.46633803071676    2.51136070923202   -3.62953468891453
H         2.85709529760838    2.86502468195994   -1.93855504961803
C         0.28092114062721    3.62231212214761   -2.33975429731730
H        -0.72243337043995    3.69157372829500   -1.92773181624772
H         0.92053050712897    4.30610786826151   -1.78329913012743
H         0.26354364002157    3.93441872717950   -3.38405747565546
B         1.56537016595964    0.62026236020584    1.85076399067879
O         2.92473271770473    0.56666696276239    2.13355379694463
C         3.36316220160282    1.88744976080510    2.50911682822331
C         4.53225143544200    1.78878157480698    3.48049364071980
H         4.27976613591813    1.16005462832746    4.33033130954429
H         5.38745783908166    1.34480460465628    2.97277269749818
H         4.81482513893593    2.77903358831689    3.83677219730087
C         3.79921644457746    2.57478801938020    1.21082476529977
H         4.20072984311931    3.57023303673473    1.39527154963213
H         4.56326624345901    1.96304606437165    0.73417097484030
H         2.95121963466218    2.62729819542672    0.52925183894201
C         2.05276908538087    2.50513083558237    3.08940568053424
O         1.03989120029972    1.80953332182198    2.33532993154762
C         1.89366530593622    4.00719272531194    2.88855500715391
H         1.86846858054260    4.25077194017168    1.83023802616302
H         0.95631108637523    4.33645885612676    3.33521449523278
H         2.71421686936657    4.54314598426135    3.36480189482542
C         1.83140495513182    2.14114949382870    4.56176038652992
H         1.93361908773929    1.06582318381846    4.70263977473313
H         2.53232904649150    2.66321605278040    5.21038532369553
H         0.81689569637629    2.42005486670323    4.84605602532754
B         2.27820000000000   -1.33090000000001    0.17410000000002
O         2.90001003774782   -2.56149123079192    0.39154579959627
C         4.26488590887994   -2.48358006930818   -0.07684961780057
C         5.10943796539314   -2.05862825387801    1.12874678732420
H         4.75355130394205   -1.09843740600298    1.49973113151907
H         4.97781790612010   -2.79346451454772    1.92208937116761
H         6.16713538274443   -1.99897011980946    0.87665167471099
C         4.71957596138941   -3.84574048305302   -0.58667456183214
H         4.74922792156700   -4.54993943550817    0.24348454327367
H         5.71742705186194   -3.77404873269448   -1.01861901087930
H         4.03420524475811   -4.23353441003530   -1.33554914838306
C         4.16600775690801   -1.36078081930387   -1.15738338440447
O         3.07324026336001   -0.56398905113494   -0.66241182151733
C         5.40921050967207   -0.49243557225573   -1.31491542903845
H         6.26533838349175   -1.09839489767231   -1.61028806304266
H         5.23109901209859    0.25846597268937   -2.08347904062616
H         5.63686644917755    0.02208418921758   -0.38587620448135
C         3.72935406484547   -1.90002705040107   -2.52554616214501
H         2.83739429629228   -2.51562436371374   -2.41710436290067
H         3.47233920381108   -1.05855503713549   -3.16756843027990
H         4.51962602181974   -2.47714336244227   -3.00273018778413
H        -3.38350464232614   -3.98832023797070   -2.57973541054501
H        -5.19963376024077    1.50511859508426    1.29512797001304
C         0.23589999999993   -1.68139999999999    2.96030000000001
C        -0.99365292416627   -2.17885024292733    3.39249922128754
C         1.24564497489341   -1.64580879240321    3.92566378665246
C        -1.15938807145042   -2.58897606709172    4.70740742289248
H        -1.82622745331589   -2.27734130257675    2.70742305239561
N         1.10519689570714   -2.04593197732614    5.17952729642591
H         2.23857418896107   -1.30356828958416    3.66390785378145
C        -0.07173569273294   -2.53440921951928    5.56830568384767
H        -2.10562595560140   -2.98589429882582    5.04783725051193
C        -0.10724050203962   -3.13729124912192    6.95240402858322
N         0.11781665116288   -4.56453744415311    6.86557914880288
H        -1.07458369563795   -2.96969984116242    7.43081485776820
H         0.68800256813343   -2.68572511015912    7.55243086299338
C        -0.80409783354769   -5.54083871120057    7.07460211109999
C         1.28508192895331   -5.14300557210702    6.47685954856713
C        -0.21913651544389   -6.75546228780721    6.83338167661607
H        -1.80209213037542   -5.30592297479235    7.39293367168232
C         1.11235046099703   -6.50084685314174    6.45017922599439
H         2.14215953455568   -4.54270087961563    6.24054252406464
H        -0.68727246027356   -7.71802156867043    6.92231742624013
H         1.85342769570794   -7.23309643274284    6.18853015385427
106
 energy: -152.893716655834 gnorm: 0.036685008601 xtb: 6.4.0 (f63f532)
N        -0.95546497442008   -2.09441823964781   -0.25787614901630
C        -2.23117019340756   -1.68475978744352   -0.36649420824126
C        -3.13082623520108   -2.35439865832467   -1.20386759360062
C        -2.70838544374573   -3.45343017286253   -1.92028744910649
C        -1.38912089131462   -3.87298993752124   -1.78455914277257
C        -0.55896432201413   -3.15937810515335   -0.94684136716408
H         0.47333163574548   -3.44351944791224   -0.80458186927182
H        -1.01832890386415   -4.73272597620866   -2.31768268864608
H        -4.14991831508904   -2.01984681158418   -1.30032709711433
C        -2.59916878809770   -0.51639423775501    0.43060526683979
N        -1.61019730579506    0.05809421507406    1.14546180864249
C        -1.89436745346847    1.12565391602693    1.88561431787171
C        -3.15689942255742    1.67652389263038    1.97420537563477
C        -4.18826521165560    1.09281361986460    1.24756501831429
C        -3.90245824858431   -0.00793139314815    0.46801339112492
H        -4.69069673749583   -0.47220910411103   -0.09999905514342
H        -3.33213874649481    2.53675978338030    2.59927659279811
H        -1.05611539212726    1.54995442284806    2.41454165400634
Ir        0.42150000000000   -0.81650000000000    0.91330000000000
H         0.87260000000000   -2.23030000000000    1.54050000000000
B         0.49326911211116    0.43416642476155   -0.76775923475550
O         0.15498523370233   -0.02656397963164   -2.03173581698991
C         0.00642166530747    1.09263201833714   -2.92344557574296
C         0.49132317092566    0.73706049237275   -4.32516382647102
H         1.50649577975227    0.35649038111237   -4.30416019152896
H         0.44726092131732    1.61548440593314   -4.96406583641548
H        -0.15140115940651   -0.03261669917598   -4.74448487537652
C        -1.49577805865355    1.40513943466924   -2.97037667840072
H        -1.71465510379650    2.21410617555937   -3.66084278202814
H        -2.02524360753924    0.51056319456056   -3.29146584994278
H        -1.84557131214438    1.66428729670990   -1.97323963805594
C         0.82512729192131    2.20520751573930   -2.19934552278384
O         0.75927976619764    1.78328325482948   -0.82641448960888
C         2.30509479177887    2.19394961275062   -2.59679381804922
H         2.70689338587105    1.19666742938383   -2.43951783377825
H         2.44328442843786    2.50753089872538   -3.62764066426001
H         2.84712985132198    2.87384865856002   -1.94416548404039
C         0.27119973754306    3.61981142431010   -2.33654514120763
H        -0.72813379242604    3.69530472444575   -1.92133062669097
H         0.91599824900040    4.30252901307168   -1.78982730039172
H         0.25462370398942    3.91483377121504   -3.38240823684592
B         1.56713501898640    0.62568334237151    1.86053744028486
O         2.92299458684953    0.57775822534362    2.12032668744490
C         3.36155202127169    1.88906790708370    2.51130048193180
C         4.52848021913434    1.78844936004104    3.48575893336314
H         4.27865401503795    1.15462313380108    4.32967639036734
H         5.38172021718716    1.35194567637731    2.97393671600323
H         4.80107021807599    2.77803525803939    3.84119569241908
C         3.80296445087236    2.58810830710441    1.22129247365442
H         4.20128553471528    3.57949332779694    1.41418973353939
H         4.56632820055654    1.97903401079085    0.74475226866697
H         2.95388198694328    2.63546222691223    0.54376212070674
C         2.05317066843577    2.50536864673423    3.09118568767078
O         1.04150749845614    1.80231996361426    2.35062574365057
C         1.89557938596585    4.00718887239511    2.88731519134993
H         1.86261748475697    4.24869717192610    1.83089727142649
H         0.96327614483177    4.33312117589302    3.34017327303318
H         2.71982578885273    4.53464124377128    3.35867988294821
C         1.84152322980811    2.15157135459239    4.56817417135518
H         1.94635071714472    1.07812760007015    4.70640753070070
H         2.54485435177241    2.67854600964371    5.20480041933189
H         0.82893941385913    2.42798766879869    4.85306631464313
B         2.27820000000000   -1.33090000000002    0.17410000000002
O         2.90137159709777   -2.54915743013653    0.40128923612012
C         4.25736469480579   -2.48198508231816   -0.07614162321959
C         5.11245672670529   -2.06053900677395    1.12272603050276
H         4.75210696737602   -1.10293314405965    1.49042547014289
H         4.98128683524725   -2.79348687330062    1.91435682910740
H         6.16453965600819   -2.00248706020646    0.86170687909682
C         4.71055361074423   -3.84417604005342   -0.58824872780210
H         4.74244866387677   -4.54170836648454    0.24367972556303
H         5.70448354725927   -3.76358897700142   -1.01898051657708
H         4.02523952243159   -4.23382324221832   -1.33274578911114
C         4.16119107821323   -1.36158032869072   -1.15536966936861
O         3.06081390011047   -0.57369538175036   -0.67098920938694
C         5.40579509811277   -0.49480460831030   -1.30822377506808
H         6.25431662228389   -1.10824223904255   -1.59747368651274
H         5.22950084575635    0.24917495224347   -2.08002950193312
H         5.62977589687648    0.02210643167275   -0.38231072317512
C         3.73988755560602   -1.90484466728663   -2.52734706761046
H         2.84895231598234   -2.51782417563879   -2.41845608677633
H         3.48693459177682   -1.06531538193206   -3.17008975051608
H         4.53669172804475   -2.47775879684353   -2.99110226526184
H        -3.38934156294456   -3.97848115424376   -2.57175346535395
H        -5.19066933963641    1.49029690617901    1.29024382773715
C         0.23589999999994   -1.68139999999998    2.96029999999999
C        -0.99416218240129   -2.18025114197737    3.39192633701023
C         1.24482402811019   -1.64426756603297    3.92994058913420
C        -1.16051207508929   -2.58915536946553    4.70663276314040
H        -1.82542147124127   -2.27979387012906    2.70613789814980
N         1.10083824784837   -2.04431355315786    5.17972888294249
H         2.23676674939248   -1.29992150623710    3.66901635820276
C        -0.07317509211531   -2.53284158275298    5.56724933328142
H        -2.10618927732295   -2.98649502229881    5.04647421520962
C        -0.11043356379152   -3.13613228841980    6.95257643125900
N         0.11511464600267   -4.56145604657409    6.86630132792130
H        -1.07809325888304   -2.96781846011956    7.42883341131403
H         0.68359144985583   -2.68317259585245    7.55241637669353
C        -0.80549408110104   -5.53675455485857    7.07500246319254
C         1.28190296069340   -5.13829429361610    6.47948251826721
C        -0.22030036365719   -6.75116182137709    6.83556205282262
H        -1.80311786632047   -5.30258715530087    7.39167404589806
C         1.11097149610632   -6.49610884208446    6.45353482633784
H         2.13809814547774   -4.53840394277301    6.24436063121490
H        -0.68746453485452   -7.71291066004720    6.92496864729637
H         1.85219316845328   -7.22707197745540    6.19346967778536
106
 energy: -152.894240666694 gnorm: 0.035921435022 xtb: 6.4.0 (f63f532)
N        -0.94722863026028   -2.09172029902182   -0.26812572573519
C        -2.22377478527314   -1.68211697764600   -0.37102885888284
C        -3.12853886981848   -2.35154044476306   -1.20419385429782
C        -2.71167405879445   -3.45083679432777   -1.92220767852935
C        -1.39070041247902   -3.87066973822075   -1.79268686204286
C        -0.55626684086843   -3.15611660348239   -0.95967755500717
H         0.47596625871113   -3.44419185998752   -0.82246600000291
H        -1.02396362823919   -4.73117991781286   -2.32642243478032
H        -4.14754425040569   -2.01531579301072   -1.29467531418737
C        -2.58989985780593   -0.51722765607189    0.42637109984979
N        -1.60154597373930    0.05691118492345    1.14291759669828
C        -1.88875797230793    1.12384022002564    1.88190896763844
C        -3.15165719789701    1.67313821237683    1.97154772088455
C        -4.18344949013697    1.08797692942044    1.24415882668823
C        -3.89444150693310   -0.01014856978564    0.46341016562588
H        -4.68018323589969   -0.47491896378162   -0.10739626027078
H        -3.32822780011537    2.53149374208182    2.59779442852353
H        -1.05371667908383    1.54944371587355    2.41544048370715
Ir        0.42150000000000   -0.81650000000000    0.91330000000000
H         0.87260000000000   -2.23030000000000    1.54050000000000
B         0.48062096835972    0.44724740218616   -0.74929418588158
O         0.13387385307059   -0.01885326116667   -2.00874435106334
C        -0.00193387154427    1.09230308064569   -2.90709981710633
C         0.49044655964951    0.72618775685853   -4.30427981192679
H         1.50308861909544    0.33966639364805   -4.27642669111437
H         0.45401363455345    1.60410417130596   -4.94379059508466
H        -0.15520601805884   -0.04080840537213   -4.72363633104549
C        -1.50284667647068    1.41318424552722   -2.97029242525951
H        -1.70714134457587    2.22005810569342   -3.66713812323091
H        -2.03339674668000    0.52007371401975   -3.29302662988975
H        -1.86096645787443    1.67896907444266   -1.97800293893018
C         0.81771901176453    2.20709961307879   -2.18706166588019
O         0.75977664954933    1.79160540536679   -0.81493788053023
C         2.29631388703723    2.19722327704431   -2.59283021487395
H         2.70036641285244    1.20193940062279   -2.42916727389469
H         2.42601421950549    2.50284292476704   -3.62679805711047
H         2.83926453250134    2.88428571623732   -1.94871352191945
C         0.26247830548901    3.62136438530995   -2.33161973796247
H        -0.73478475763986    3.70066218489417   -1.91252998120444
H         0.91079526985741    4.30829691166818   -1.79452599438215
H         0.24145038309388    3.90440126401067   -3.38048981655697
B         1.56864340395056    0.63055311977332    1.86141934000500
O         2.92375068916050    0.58521085892891    2.10858259252766
C         3.36135270763986    1.89124325692510    2.51233898512973
C         4.52681745868982    1.78615842015174    3.48953987459091
H         4.27762903835975    1.14584313194278    4.32859469209069
H         5.38249658680034    1.35677060172244    2.97595567499187
H         4.79310963222238    2.77495197645057    3.85121147160253
C         3.80735248129507    2.60160702981481    1.22908227252260
H         4.20202842407640    3.59194850738281    1.43205080725022
H         4.57425972144484    1.99757585528948    0.75191838859917
H         2.96027284939546    2.65106379502990    0.54955973740764
C         2.05315399669025    2.50544719995523    3.09509078711858
O         1.04003294459950    1.79686249422878    2.36479324542878
C         1.89367800994561    4.00744927402201    2.88757319939794
H         1.85271832280075    4.24664768126520    1.83094479196199
H         0.96552738925674    4.33487792112545    3.34758944631705
H         2.72300853495721    4.53316727299433    3.35135982723082
C         1.85135233487198    2.16020666495148    4.57647478972799
H         1.95941939207868    1.08787597405683    4.71936304114493
H         2.55804264024069    2.69337021763336    5.20366714034342
H         0.84002287407283    2.43641997765515    4.86516493948753
B         2.27820000000000   -1.33090000000003    0.17410000000002
O         2.90238279114061   -2.54304460177418    0.41129371355715
C         4.25274639473429   -2.48161202546788   -0.07436935347848
C         5.11681302218376   -2.06135283675759    1.11948706860406
H         4.75819174129336   -1.10363109592251    1.48821489794938
H         4.98878541748304   -2.79441002682771    1.91126372210811
H         6.16651961052689   -2.00463679965467    0.85089575151301
C         4.70166419327514   -3.84588519135695   -0.58724855423611
H         4.73670245570729   -4.54164168921889    0.24579920632646
H         5.69350036362986   -3.76334370631843   -1.02154397569424
H         4.01345951883804   -4.23608737728725   -1.32861745581389
C         4.15763166640374   -1.36300470691881   -1.15559019376341
O         3.05195395975778   -0.57911321667316   -0.68054699079243
C         5.40232189763369   -0.49451124222880   -1.30320318906808
H         6.25074128122977   -1.11141977700806   -1.58453212129962
H         5.23042547187714    0.24567639530282   -2.07942791899999
H         5.62087171972942    0.02577412600261   -0.37805838758615
C         3.74913055481936   -1.91005302976052   -2.53090093114617
H         2.85861704511086   -2.52417499506738   -2.42776066083090
H         3.50156995397670   -1.07193671333615   -3.17741610009825
H         4.55229886337740   -2.48192681314789   -2.98395530228400
H        -3.39609041593410   -3.97522121793044   -2.57024616849013
H        -5.18654486949068    1.48280686347037    1.28761702754933
C         0.23589999999996   -1.68139999999996    2.96029999999997
C        -0.99411993892982   -2.18141201355573    3.39092275476263
C         1.24367717516839   -1.64148434710036    3.93212140260106
C        -1.16244735403729   -2.58895254880388    4.70587754100604
H        -1.82391002004602   -2.28299108889836    2.70362199819432
N         1.09735913459084   -2.04071952847899    5.18113835104556
H         2.23503409090495   -1.29542741218964    3.67130933989182
C        -0.07613680962692   -2.53014534386467    5.56776402036010
H        -2.10821565205408   -2.98700750296671    5.04451769635057
C        -0.11494676795506   -3.13278638080646    6.95386216389030
N         0.11166632153996   -4.55730548799265    6.86819166553423
H        -1.08353221839619   -2.96426151379522    7.42797284369282
H         0.67795708282718   -2.67839433313985    7.55411112697786
C        -0.80829519660100   -5.53283852976957    7.07632525189229
C         1.27926765131697   -5.13303855870636    6.48330417222176
C        -0.22188945067294   -6.74716868795458    6.83834782339469
H        -1.80668800550802   -5.29943492309637    7.39125199031064
C         1.10972234593513   -6.49125213729044    6.45793275299596
H         2.13544136144147   -4.53278864347956    6.24888165078127
H        -0.68841870003960   -7.70916591532979    6.92780081429087
H         1.85191764258744   -7.22159415065773    6.19912640448591
106
 energy: -152.894831157532 gnorm: 0.036432427394 xtb: 6.4.0 (f63f532)
N        -0.93609397963445   -2.09219671716474   -0.28122920069945
C        -2.21391655547664   -1.68102050977852   -0.37749380980759
C        -3.12451557897560   -2.34929151855128   -1.20703025899355
C        -2.71445483951381   -3.44856339266670   -1.92844248085773
C        -1.39114468419305   -3.86853045790685   -1.80839082092163
C        -0.55061830232989   -3.15467597994594   -0.97956447678959
H         0.48326499970627   -3.44442484082716   -0.85359254273154
H        -1.02921638909118   -4.72901094367145   -2.34581800522178
H        -4.14384653730554   -2.01084849319971   -1.28910165125296
C        -2.57766263404669   -0.51887250230587    0.42149068545033
N        -1.59028507238922    0.05265388117971    1.14427085161876
C        -1.88048097963829    1.12036492763388    1.88283480918225
C        -3.14374907736382    1.66947194749750    1.97031251221522
C        -4.17537323180990    1.08454533388897    1.23943018869346
C        -3.88268213287463   -0.01013261491353    0.45592460587773
H        -4.66532282230750   -0.47452919705373   -0.11994745076418
H        -3.32183279098508    2.52653056122786    2.59791693003453
H        -1.04844332914737    1.54886373686762    2.41984936639644