      -----------------------------------------------------------      
     |                   =====================                   |     
     |                           x T B                           |     
     |                   =====================                   |     
     |                         S. Grimme                         |     
     |          Mulliken Center for Theoretical Chemistry        |     
     |                    University of Bonn                     |     
      -----------------------------------------------------------      

   * xtb version 6.4.0 (f63f532) compiled by 'knkr256@seskscpg008.prim.scp' on 2021-04-09

   xtb is free software: you can redistribute it and/or modify it under
   the terms of the GNU Lesser General Public License as published by
   the Free Software Foundation, either version 3 of the License, or
   (at your option) any later version.
   
   xtb is distributed in the hope that it will be useful,
   but WITHOUT ANY WARRANTY; without even the implied warranty of
   MERCHANTABILITY or FITNESS FOR A PARTICULAR PURPOSE.  See the
   GNU Lesser General Public License for more details.
   
   Cite this work as:
   * C. Bannwarth, E. Caldeweyher, S. Ehlert, A. Hansen, P. Pracht,
     J. Seibert, S. Spicher, S. Grimme, WIREs Comput. Mol. Sci., 2020, 11,
     e01493. DOI: 10.1002/wcms.1493
   
   for GFN2-xTB:
   * C. Bannwarth, S. Ehlert and S. Grimme., J. Chem. Theory Comput., 2019,
     15, 1652-1671. DOI: 10.1021/acs.jctc.8b01176
   for GFN1-xTB:
   * S. Grimme, C. Bannwarth, P. Shushkov, J. Chem. Theory Comput., 2017,
     13, 1989-2009. DOI: 10.1021/acs.jctc.7b00118
   for GFN0-xTB:
   * P. Pracht, E. Caldeweyher, S. Ehlert, S. Grimme, ChemRxiv, 2019, preprint.
     DOI: 10.26434/chemrxiv.8326202.v1
   for GFN-FF:
   * S. Spicher and S. Grimme, Angew. Chem. Int. Ed., 2020, 59, 15665-15673.
     DOI: 10.1002/anie.202004239
   
   for DFT-D4:
   * E. Caldeweyher, C. Bannwarth and S. Grimme, J. Chem. Phys., 2017,
     147, 034112. DOI: 10.1063/1.4993215
   * E. Caldeweyher, S. Ehlert, A. Hansen, H. Neugebauer, S. Spicher,
     C. Bannwarth and S. Grimme, J. Chem. Phys., 2019, 150, 154122.
     DOI: 10.1063/1.5090222
   * E. Caldeweyher, J.-M. Mewes, S. Ehlert and S. Grimme, Phys. Chem. Chem. Phys.
     2020, 22, 8499-8512. DOI: 10.1039/D0CP00502A
   
   for sTDA-xTB:
   * S. Grimme and C. Bannwarth, J. Chem. Phys., 2016, 145, 054103.
     DOI: 10.1063/1.4959605
   
   in the mass-spec context:
   * V. Asgeirsson, C. Bauer and S. Grimme, Chem. Sci., 2017, 8, 4879.
     DOI: 10.1039/c7sc00601b
   * J. Koopman and S. Grimme, ACS Omega 2019, 4, 12, 15120-15133.
     DOI: 10.1021/acsomega.9b02011
   
   for metadynamics refer to:
   * S. Grimme, J. Chem. Theory Comput., 2019, 155, 2847-2862
     DOI: 10.1021/acs.jctc.9b00143
   
   for SPH calculations refer to:
   * S. Spicher and S. Grimme, J. Chem. Theory Comput., 2021, 17, 1701-1714
     DOI: 10.1021/acs.jctc.0c01306
   
   with help from (in alphabetical order)
   P. Atkinson, C. Bannwarth, F. Bohle, G. Brandenburg, E. Caldeweyher
   M. Checinski, S. Dohm, S. Ehlert, S. Ehrlich, I. Gerasimov, J. Koopman
   C. Lavinge, S. Lehtola, F. März, M. Müller, F. Musil, H. Neugebauer
   J. Pisarek, P. Pracht, J. Seibert, P. Shushkov, S. Spicher, M. Stahn
   T. Strunk, J. Stückrath, T. Rose, and J. Unsleber
   
 * started run on 2021/10/08 at 07:19:37.660     

           -------------------------------------------------
          |                Calculation Setup                |
           -------------------------------------------------

          program call               : xtb xtbopt.xyz --sp --alpb thf -P 6
          hostname                   : seskscpg010.prim.scp
          coordinate file            : xtbopt.xyz
          omp threads                :                     6
          number of atoms            :                   108
          number of electrons        :                   284
          charge                     :                     0
          spin                       :                   0.0
          first test random number   :      0.30755809514897

   ID    Z sym.   atoms
    1    7 N      1, 11, 91
    2    6 C      2-6, 10, 12-15, 23, 24, 28, 32, 34, 38, 44, 45, 49, 53, 55,
                  59, 65, 66, 70, 74, 76, 80, 86-89, 93, 95, 96, 99-101, 103,
                  105
    3    1 H      7-9, 16-18, 20, 25-27, 29-31, 35-37, 39-41, 46-48, 50-52,
                  56-58, 60-62, 67-69, 71-73, 77-79, 81-85, 90, 92, 94, 97,
                  98, 102, 104, 106-108
    4   77 Ir     19
    5    5 B      21, 42, 63
    6    8 O      22, 33, 43, 54, 64, 75

molecular fragmentation (1/2 indicates fragments):
111111111111111111111111111111111111111111111111111111111111111111111111
111111111111122222222222222222222222
# atoms in fragment 1/2:    85    23
 fragment masses (1/2) :      730.32      168.21
CMA distance (Bohr)    :  12.223
constraining FC (au)   :  0.0500

           -------------------------------------------------
          |                 G F N 2 - x T B                 |
           -------------------------------------------------

        Reference                      10.1021/acs.jctc.8b01176
      * Hamiltonian:
        H0-scaling (s, p, d)           1.850000    2.230000    2.230000
        zeta-weighting                 0.500000
      * Dispersion:
        s8                             2.700000
        a1                             0.520000
        a2                             5.000000
        s9                             5.000000
      * Repulsion:
        kExp                           1.500000    1.000000
        rExp                           1.000000
      * Coulomb:
        alpha                          2.000000
        third order                    shell-resolved
        anisotropic                    true
        a3                             3.000000
        a5                             4.000000
        cn-shift                       1.200000
        cn-exp                         4.000000
        max-rad                        5.000000

      * Solvation model:               ALPB
        Solvent                        thf
        Parameter file                 internal GFN2-xTB/ALPB
        Dielectric constant                7.6000E+00
        Reference state                gsolv [1 M gas/solution]
        Free energy shift                  5.3248E-03 Eh       3.3414E+00 kcal/mol
        Temperature                        2.9815E+02 K
        Density                            8.8300E-01 kg/L
        Solvent mass                       7.2106E+01 g/mol
        Interaction kernel             P16
        Born radius scaling (c1)           1.7311E+00
        Born radii integrator          GBOBC
        Born offset                        0.0000E+00 a0       0.0000E+00 AA
        H-bond correction              true
        Ion screening                  false
        Surface tension                    1.0000E-05 Eh       1.5569E+01 dyn/cm
        Grid points                               230 per atom
q/qsh data taken from xtbrestart
CAMM data taken from xtbrestart

          ...................................................
          :                      SETUP                      :
          :.................................................:
          :  # basis functions                 273          :
          :  # atomic orbitals                 272          :
          :  # shells                          162          :
          :  # electrons                       284          :
          :  max. iterations                   250          :
          :  Hamiltonian                  GFN2-xTB          :
          :  restarted?                       true          :
          :  GBSA solvation                   true          :
          :  PC potential                    false          :
          :  electronic temp.          300.0000000     K    :
          :  accuracy                    1.0000000          :
          :  -> integral cutoff          0.2500000E+02      :
          :  -> integral neglect         0.1000000E-07      :
          :  -> SCF convergence          0.1000000E-05 Eh   :
          :  -> wf. convergence          0.1000000E-03 e    :
          :  Broyden damping             0.4000000          :
          ...................................................

 iter      E             dE          RMSdq      gap      omega  full diag
   1   -156.8575784 -0.156858E+03  0.263E-05    0.92       0.0  T
   2   -156.8575784 -0.790124E-11  0.221E-05    0.92     436.3  T
   3   -156.8575784 -0.957812E-11  0.165E-05    0.92     582.4  T

   *** convergence criteria satisfied after 3 iterations ***

         #    Occupation            Energy/Eh            Energy/eV
      -------------------------------------------------------------
         1        2.0000           -0.6761323             -18.3985
       ...           ...                  ...                  ...
       136        2.0000           -0.3572925              -9.7224
       137        2.0000           -0.3449535              -9.3867
       138        2.0000           -0.3343822              -9.0990
       139        2.0000           -0.3255235              -8.8579
       140        2.0000           -0.3210747              -8.7369
       141        2.0000           -0.3139100              -8.5419
       142        2.0000           -0.3109696              -8.4619 (HOMO)
       143                         -0.2772088              -7.5432 (LUMO)
       144                         -0.2497054              -6.7948
       145                         -0.2468057              -6.7159
       146                         -0.2298810              -6.2554
       147                         -0.2199990              -5.9865
       ...                                ...                  ...
       272                          3.7100908             100.9567
      -------------------------------------------------------------
                  HL-Gap            0.0337607 Eh            0.9187 eV
             Fermi-level           -0.2940682 Eh           -8.0020 eV

 SCC (total)                   0 d,  0 h,  0 min,  0.120 sec
 SCC setup                      ...        0 min,  0.003 sec (  2.606%)
 Dispersion                     ...        0 min,  0.003 sec (  2.204%)
 classical contributions        ...        0 min,  0.000 sec (  0.144%)
 integral evaluation            ...        0 min,  0.034 sec ( 28.071%)
 iterations                     ...        0 min,  0.036 sec ( 29.626%)
 molecular gradient             ...        0 min,  0.044 sec ( 36.796%)
 printout                       ...        0 min,  0.001 sec (  0.507%)

         :::::::::::::::::::::::::::::::::::::::::::::::::::::
         ::                     SUMMARY                     ::
         :::::::::::::::::::::::::::::::::::::::::::::::::::::
         :: total energy            -154.758655722213 Eh    ::
         :: total w/o Gsasa/hb      -154.714040703576 Eh    ::
         :: gradient norm              0.033455299227 Eh/a0 ::
         :: HOMO-LUMO gap              0.918676266560 eV    ::
         ::.................................................::
         :: SCC energy              -156.857578447885 Eh    ::
         :: -> isotropic ES            0.243837606648 Eh    ::
         :: -> anisotropic ES          0.014692885892 Eh    ::
         :: -> anisotropic XC          0.062189509189 Eh    ::
         :: -> dispersion             -0.148455728457 Eh    ::
         :: -> Gsolv                  -0.054559941030 Eh    ::
         ::    -> Gelec               -0.009944922394 Eh    ::
         ::    -> Gsasa               -0.047325509579 Eh    ::
         ::    -> Ghb                 -0.002614324502 Eh    ::
         ::    -> Gshift               0.005324815444 Eh    ::
         :: repulsion energy           2.090436922499 Eh    ::
         :: add. restraining           0.000000000000 Eh    ::
         :: total charge               0.000000001740 e     ::
         :::::::::::::::::::::::::::::::::::::::::::::::::::::

           -------------------------------------------------
          |                Property Printout                |
           -------------------------------------------------

    * Orbital Energies and Occupations

         #    Occupation            Energy/Eh            Energy/eV
      -------------------------------------------------------------
         1        2.0000           -0.6761323             -18.3985
       ...           ...                  ...                  ...
       130        2.0000           -0.3909001             -10.6369
       131        2.0000           -0.3879606             -10.5569
       132        2.0000           -0.3875695             -10.5463
       133        2.0000           -0.3851667             -10.4809
       134        2.0000           -0.3829462             -10.4205
       135        2.0000           -0.3825542             -10.4098
       136        2.0000           -0.3572925              -9.7224
       137        2.0000           -0.3449535              -9.3867
       138        2.0000           -0.3343822              -9.0990
       139        2.0000           -0.3255235              -8.8579
       140        2.0000           -0.3210747              -8.7369
       141        2.0000           -0.3139100              -8.5419
       142        2.0000           -0.3109696              -8.4619 (HOMO)
       143                         -0.2772088              -7.5432 (LUMO)
       144                         -0.2497054              -6.7948
       145                         -0.2468057              -6.7159
       146                         -0.2298810              -6.2554
       147                         -0.2199990              -5.9865
       148                         -0.2116403              -5.7590
       149                         -0.2093832              -5.6976
       150                         -0.2058136              -5.6005
       151                         -0.1905658              -5.1856
       152                         -0.1490669              -4.0563
       153                         -0.1282642              -3.4902
       ...                                ...                  ...
       272                          3.7100908             100.9567
      -------------------------------------------------------------
                  HL-Gap            0.0337607 Eh            0.9187 eV
             Fermi-level           -0.2940682 Eh           -8.0020 eV

     #   Z          covCN         q      C6AA      α(0)
     1   7 N        2.555    -0.121    23.659     7.224
     2   6 C        2.956     0.077    26.287     8.409
     3   6 C        2.918    -0.042    29.040     8.837
     4   6 C        2.923    -0.022    28.565     8.765
     5   6 C        2.915    -0.043    29.068     8.841
     6   6 C        2.892     0.048    26.916     8.506
     7   1 H        0.926     0.053     2.286     2.364
     8   1 H        0.926     0.056     2.240     2.341
     9   1 H        0.926     0.047     2.361     2.403
    10   6 C        2.953     0.073    26.364     8.422
    11   7 N        2.564    -0.127    23.774     7.241
    12   6 C        2.889     0.043    27.041     8.526
    13   6 C        2.915    -0.045    29.120     8.849
    14   6 C        2.922    -0.024    28.609     8.771
    15   6 C        2.918    -0.045    29.125     8.850
    16   1 H        0.926     0.047     2.360     2.402
    17   1 H        0.926     0.051     2.309     2.376
    18   1 H        0.926     0.073     2.047     2.238
    19  77 Ir       5.955    -0.155   388.129    36.432
    20   1 H        0.977     0.081     1.965     2.191
    21   5 B        2.627     0.403    16.035     6.768
    22   8 O        1.638    -0.410    21.057     6.194
    23   6 C        3.836     0.131    18.440     6.109
    24   6 C        3.755    -0.122    22.886     6.821
    25   1 H        0.925     0.054     2.272     2.357
    26   1 H        0.925     0.045     2.379     2.412
    27   1 H        0.925     0.051     2.306     2.375
    28   6 C        3.754    -0.108    22.628     6.783
    29   1 H        0.925     0.048     2.351     2.398
    30   1 H        0.925     0.041     2.432     2.439
    31   1 H        0.925     0.027     2.629     2.536
    32   6 C        3.839     0.131    18.436     6.108
    33   8 O        1.637    -0.404    20.928     6.175
    34   6 C        3.755    -0.119    22.843     6.815
    35   1 H        0.925     0.047     2.353     2.399
    36   1 H        0.925     0.047     2.355     2.400
    37   1 H        0.925     0.050     2.320     2.382
    38   6 C        3.754    -0.119    22.846     6.815
    39   1 H        0.925     0.047     2.360     2.403
    40   1 H        0.925     0.053     2.283     2.363
    41   1 H        0.925     0.045     2.377     2.411
    42   5 B        2.626     0.406    16.002     6.762
    43   8 O        1.637    -0.381    20.502     6.112
    44   6 C        3.837     0.128    18.472     6.115
    45   6 C        3.755    -0.127    22.993     6.837
    46   1 H        0.925     0.057     2.237     2.339
    47   1 H        0.925     0.057     2.229     2.335
    48   1 H        0.925     0.050     2.314     2.379
    49   6 C        3.755    -0.121    22.885     6.821
    50   1 H        0.925     0.050     2.322     2.383
    51   1 H        0.925     0.047     2.359     2.402
    52   1 H        0.925     0.051     2.309     2.376
    53   6 C        3.833     0.128    18.481     6.116
    54   8 O        1.637    -0.385    20.577     6.123
    55   6 C        3.755    -0.124    22.926     6.827
    56   1 H        0.925     0.053     2.281     2.362
    57   1 H        0.925     0.054     2.272     2.357
    58   1 H        0.925     0.049     2.332     2.388
    59   6 C        3.755    -0.119    22.844     6.815
    60   1 H        0.925     0.046     2.367     2.406
    61   1 H        0.925     0.052     2.294     2.369
    62   1 H        0.925     0.046     2.373     2.409
    63   5 B        2.627     0.400    16.074     6.777
    64   8 O        1.637    -0.378    20.435     6.102
    65   6 C        3.834     0.125    18.523     6.123
    66   6 C        3.755    -0.130    23.060     6.847
    67   1 H        0.925     0.059     2.215     2.327
    68   1 H        0.925     0.054     2.265     2.354
    69   1 H        0.925     0.050     2.315     2.379
    70   6 C        3.755    -0.129    23.039     6.844
    71   1 H        0.925     0.061     2.190     2.314
    72   1 H        0.925     0.051     2.306     2.375
    73   1 H        0.925     0.052     2.291     2.367
    74   6 C        3.829     0.126    18.509     6.122
    75   8 O        1.637    -0.382    20.506     6.113
    76   6 C        3.755    -0.124    22.940     6.829
    77   1 H        0.925     0.051     2.305     2.374
    78   1 H        0.925     0.053     2.285     2.364
    79   1 H        0.925     0.055     2.260     2.351
    80   6 C        3.755    -0.123    22.913     6.825
    81   1 H        0.925     0.040     2.449     2.447
    82   1 H        0.925     0.052     2.300     2.372
    83   1 H        0.925     0.055     2.261     2.352
    84   1 H        0.926     0.053     2.277     2.360
    85   1 H        0.926     0.051     2.313     2.378
    86   6 C        2.824    -0.037    28.916     8.811
    87   6 C        2.933    -0.017    28.427     8.744
    88   6 C        2.906     0.052    26.840     8.495
    89   6 C        2.913    -0.057    29.416     8.894
    90   1 H        0.925     0.024     2.675     2.557
    91   7 N        1.840    -0.254    27.462     7.766
    92   1 H        0.925     0.038     2.470     2.458
    93   6 C        2.953     0.089    26.021     8.367
    94   1 H        0.926     0.030     2.588     2.516
    95   6 C        3.815    -0.079    21.991     6.674
    96   6 C        2.972     0.017    27.622     8.621
    97   1 H        0.924     0.070     2.086     2.258
    98   1 H        0.924     0.044     2.394     2.420
    99   6 C        2.924    -0.043    29.075     8.843
   100   6 C        2.925    -0.040    29.005     8.832
   101   6 C        2.919    -0.036    28.905     8.816
   102   1 H        0.925     0.028     2.610     2.527
   103   6 C        2.919    -0.034    28.854     8.809
   104   1 H        0.926     0.049     2.331     2.388
   105   6 C        2.920    -0.039    28.973     8.827
   106   1 H        0.926     0.030     2.586     2.515
   107   1 H        0.926     0.034     2.532     2.488
   108   1 H        0.926     0.030     2.581     2.512

 Mol. C6AA /au·bohr⁶  :     127099.137694
 Mol. C8AA /au·bohr⁸  :    3366043.271923
 Mol. α(0) /au        :        555.315846


Wiberg/Mayer (AO) data.
largest (>0.10) Wiberg bond orders for each atom

 ---------------------------------------------------------------------------
     #   Z sym  total        # sym  WBO       # sym  WBO       # sym  WBO
 ---------------------------------------------------------------------------
     1   7 N    3.406 --     6 C    1.383     2 C    1.306    19 Ir   0.456
     2   6 C    3.978 --     3 C    1.348     1 N    1.306    10 C    1.094
     3   6 C    3.988 --     4 C    1.484     2 C    1.348     9 H    0.962
                             6 C    0.106
     4   6 C    3.983 --     3 C    1.484     5 C    1.380    84 H    0.969
     5   6 C    3.979 --     6 C    1.464     4 C    1.380     8 H    0.968
     6   6 C    3.977 --     5 C    1.464     1 N    1.383     7 H    0.956
                             3 C    0.106
     7   1 H    0.997 --     6 C    0.956
     8   1 H    0.996 --     5 C    0.968
     9   1 H    0.997 --     3 C    0.962
    10   6 C    3.978 --    15 C    1.351    11 N    1.301     2 C    1.094
    11   7 N    3.413 --    12 C    1.383    10 C    1.301    19 Ir   0.443
    12   6 C    3.973 --    13 C    1.460    11 N    1.383    18 H    0.948
                            15 C    0.105
    13   6 C    3.981 --    12 C    1.460    14 C    1.382    17 H    0.969
    14   6 C    3.982 --    15 C    1.481    13 C    1.382    85 H    0.969
    15   6 C    3.989 --    14 C    1.481    10 C    1.351    16 H    0.962
                            12 C    0.105
    16   1 H    0.997 --    15 C    0.962
    17   1 H    0.996 --    13 C    0.969
    18   1 H    0.994 --    12 C    0.948
    19  77 Ir   5.208 --    63 B    0.867    42 B    0.846    21 B    0.716
                            86 C    0.601    20 H    0.545     1 N    0.456
                            11 N    0.443
    20   1 H    0.989 --    19 Ir   0.545    86 C    0.333
    21   5 B    3.270 --    33 O    1.112    22 O    1.091    19 Ir   0.716
    22   8 O    2.189 --    21 B    1.091    23 C    0.942
    23   6 C    3.944 --    24 C    0.997    28 C    0.990    22 O    0.942
                            32 C    0.941
    24   6 C    3.994 --    23 C    0.997    26 H    0.984    27 H    0.983
                            25 H    0.983
    25   1 H    0.997 --    24 C    0.983
    26   1 H    0.997 --    24 C    0.984
    27   1 H    0.997 --    24 C    0.983
    28   6 C    3.997 --    23 C    0.990    31 H    0.985    29 H    0.984
                            30 H    0.984
    29   1 H    0.997 --    28 C    0.984
    30   1 H    0.998 --    28 C    0.984
    31   1 H    0.999 --    28 C    0.985
    32   6 C    3.940 --    38 C    0.997    34 C    0.991    23 C    0.941
                            33 O    0.939
    33   8 O    2.202 --    21 B    1.112    32 C    0.939
    34   6 C    3.994 --    32 C    0.991    36 H    0.984    35 H    0.983
                            37 H    0.982
    35   1 H    0.998 --    34 C    0.983
    36   1 H    0.997 --    34 C    0.984
    37   1 H    0.997 --    34 C    0.982
    38   6 C    3.994 --    32 C    0.997    41 H    0.984    39 H    0.983
                            40 H    0.983
    39   1 H    0.998 --    38 C    0.983
    40   1 H    0.997 --    38 C    0.983
    41   1 H    0.997 --    38 C    0.984
    42   5 B    3.336 --    43 O    1.124    54 O    1.106    19 Ir   0.846
    43   8 O    2.229 --    42 B    1.124    44 C    0.934
    44   6 C    3.935 --    45 C    0.997    49 C    0.991    53 C    0.939
                            43 O    0.934
    45   6 C    3.992 --    44 C    0.997    48 H    0.983    46 H    0.982
                            47 H    0.982
    46   1 H    0.997 --    45 C    0.982
    47   1 H    0.996 --    45 C    0.982
    48   1 H    0.996 --    45 C    0.983
    49   6 C    3.994 --    44 C    0.991    50 H    0.983    51 H    0.983
                            52 H    0.981
    50   1 H    0.997 --    49 C    0.983
    51   1 H    0.997 --    49 C    0.983
    52   1 H    0.997 --    49 C    0.981
    53   6 C    3.937 --    55 C    0.996    59 C    0.992    44 C    0.939
                            54 O    0.933
    54   8 O    2.224 --    42 B    1.106    53 C    0.933
    55   6 C    3.993 --    53 C    0.996    58 H    0.983    57 H    0.983
                            56 H    0.983
    56   1 H    0.997 --    55 C    0.983
    57   1 H    0.997 --    55 C    0.983
    58   1 H    0.996 --    55 C    0.983
    59   6 C    3.994 --    53 C    0.992    62 H    0.983    61 H    0.983
                            60 H    0.980
    60   1 H    0.998 --    59 C    0.980
    61   1 H    0.996 --    59 C    0.983
    62   1 H    0.998 --    59 C    0.983
    63   5 B    3.360 --    75 O    1.117    64 O    1.117    19 Ir   0.867
    64   8 O    2.230 --    63 B    1.117    65 C    0.937
    65   6 C    3.936 --    70 C    0.997    66 C    0.991    74 C    0.938
                            64 O    0.937
    66   6 C    3.992 --    65 C    0.991    69 H    0.983    68 H    0.982
                            67 H    0.978
    67   1 H    0.997 --    66 C    0.978
    68   1 H    0.997 --    66 C    0.982
    69   1 H    0.996 --    66 C    0.983
    70   6 C    3.992 --    65 C    0.997    72 H    0.983    73 H    0.982
                            71 H    0.982
    71   1 H    0.996 --    70 C    0.982
    72   1 H    0.996 --    70 C    0.983
    73   1 H    0.997 --    70 C    0.982
    74   6 C    3.935 --    76 C    0.996    80 C    0.991    65 C    0.938
                            75 O    0.936
    75   8 O    2.232 --    63 B    1.117    74 C    0.936
    76   6 C    3.993 --    74 C    0.996    77 H    0.983    78 H    0.983
                            79 H    0.982
    77   1 H    0.996 --    76 C    0.983
    78   1 H    0.997 --    76 C    0.983
    79   1 H    0.997 --    76 C    0.982
    80   6 C    3.995 --    74 C    0.991    81 H    0.984    83 H    0.983
                            82 H    0.983
    81   1 H    0.998 --    80 C    0.984
    82   1 H    0.997 --    80 C    0.983
    83   1 H    0.996 --    80 C    0.983
    84   1 H    0.996 --     4 C    0.969
    85   1 H    0.996 --    14 C    0.969
    86   6 C    3.946 --    87 C    1.387    88 C    1.355    19 Ir   0.601
                            20 H    0.333
    87   6 C    3.990 --    89 C    1.436    86 C    1.387    90 H    0.964
    88   6 C    3.979 --    91 N    1.455    86 C    1.355    92 H    0.955
                            89 C    0.107
    89   6 C    3.986 --    87 C    1.436    93 C    1.401    94 H    0.967
                            88 C    0.107
    90   1 H    0.999 --    87 C    0.964
    91   7 N    3.058 --    88 C    1.455    93 C    1.384
    92   1 H    0.998 --    88 C    0.955
    93   6 C    3.974 --    89 C    1.401    91 N    1.384    95 C    0.993
    94   1 H    0.999 --    89 C    0.967
    95   6 C    3.993 --    93 C    0.993    96 C    0.993    98 H    0.973
                            97 H    0.954
    96   6 C    3.986 --    99 C    1.418   100 C    1.405    95 C    0.993
                           105 C    0.109
    97   1 H    0.994 --    95 C    0.954
    98   1 H    0.997 --    95 C    0.973
    99   6 C    3.990 --   101 C    1.438    96 C    1.418   102 H    0.969
                           103 C    0.109
   100   6 C    3.991 --   103 C    1.453    96 C    1.405   104 H    0.966
                           101 C    0.112
   101   6 C    3.991 --   105 C    1.444    99 C    1.438   106 H    0.971
                           100 C    0.112
   102   1 H    0.999 --    99 C    0.969
   103   6 C    3.992 --   100 C    1.453   105 C    1.432   107 H    0.971
                            99 C    0.109
   104   1 H    0.998 --   100 C    0.966
   105   6 C    3.991 --   101 C    1.444   103 C    1.432   108 H    0.971
                            96 C    0.109
   106   1 H    0.999 --   101 C    0.971
   107   1 H    0.999 --   103 C    0.971
   108   1 H    0.998 --   105 C    0.971
 ---------------------------------------------------------------------------

Topologies differ in total number of bonds
Writing topology from bond orders to xtbtopo.mol

molecular dipole:
                 x           y           z       tot (Debye)
 q only:       -0.048       0.390      -1.238
   full:       -1.522       0.686      -1.971       6.565
molecular quadrupole (traceless):
                xx          xy          yy          xz          yz          zz
 q only:       14.859       2.751      -0.345      -0.043      11.994     -14.514
  q+dip:       21.625       6.639      -0.644      -7.103      19.094     -20.981
   full:       17.570       6.976       3.108      -8.083      15.191     -20.678


           -------------------------------------------------
          | TOTAL ENERGY             -154.758655722213 Eh   |
          | GRADIENT NORM               0.033455299227 Eh/α |
          | HOMO-LUMO GAP               0.918676266560 eV   |
           -------------------------------------------------

------------------------------------------------------------------------
 * finished run on 2021/10/08 at 07:19:37.828     
------------------------------------------------------------------------
 total:
 * wall-time:     0 d,  0 h,  0 min,  0.168 sec
 *  cpu-time:     0 d,  0 h,  0 min,  0.984 sec
 * ratio c/w:     5.869 speedup
 SCF:
 * wall-time:     0 d,  0 h,  0 min,  0.122 sec
 *  cpu-time:     0 d,  0 h,  0 min,  0.728 sec
 * ratio c/w:     5.973 speedup

