108
 energy: -154.745419584094 gnorm: 0.075379551660 xtb: 6.4.0 (f63f532)
N        -0.96510000000000   -2.11530000000001   -0.24090000000000
C        -2.24699999999999   -1.69839999999999   -0.36220000000001
C        -3.14040000000000   -2.36820000000000   -1.21200000000000
C        -2.70220000000000   -3.47560000000001   -1.93050000000000
C        -1.37779999999998   -3.89880000000000   -1.78760000000000
C        -0.54290000000000   -3.18670000000000   -0.93509999999999
H         0.49810000000000   -3.45630000000000   -0.78940000000000
H        -0.99570000000000   -4.76029999999999   -2.32770000000000
H        -4.16500000000000   -2.02890000000000   -1.31830000000000
C        -2.62130000000001   -0.50950000000001    0.44099999999999
N        -1.62600000000000    0.07330000000001    1.16020000000000
C        -1.89680000000000    1.15240000000000    1.91690000000000
C        -3.17230000000002    1.70329999999999    1.99650000000000
C        -4.20510000000000    1.11740000000000    1.26269999999999
C        -3.92610000000002    0.00249999999999    0.47819999999998
H        -4.71959999999999   -0.46420000000000   -0.09520000000000
H        -3.34630000000000    2.57510000000000    2.62070000000000
H        -1.04450000000001    1.57420000000000    2.43690000000000
Ir        0.42150000000000   -0.81650000000000    0.91330000000000
H         0.87260000000000   -2.23030000000000    1.54050000000000
B         0.50670000000000    0.41560000000000   -0.81540000000000
O         0.19500000000000   -0.04700000000000   -2.09150000000000
C         0.00650000000000    1.10040000000000   -2.95430000000000
C         0.49020000000004    0.74740000000000   -4.35779999999999
H         1.51609999999998    0.37380000000000   -4.33700000000000
H         0.44730000000000    1.62240000000000   -5.01670000000000
H        -0.14740000000000   -0.03390000000000   -4.78430000000000
C        -1.50120000000000    1.39560000000001   -2.96670000000001
H        -1.75370000000000    2.21460000000000   -3.64850000000000
H        -2.03200000000001    0.49450000000000   -3.28930000000000
H        -1.85170000000000    1.65210000000000   -1.96220000000000
C         0.84230000000000    2.20670000000000   -2.22040000000001
O         0.75200000000000    1.78260000000000   -0.83690000000000
C         2.32930000000001    2.18620000000000   -2.59900000000000
H         2.74130000000000    1.18500000000000   -2.45750000000000
H         2.48870000000000    2.51300000000000   -3.63180000000000
H         2.87200000000000    2.86270000000000   -1.93200000000000
C         0.28440000000001    3.62290000000000   -2.33660000000000
H        -0.72650000000000    3.69040000000000   -1.92910000000000
H         0.92130000000000    4.31480000000000   -1.77610000000000
H         0.26430000000000    3.94810000000000   -3.38320000000000
B         1.56300000000000    0.60960000000000    1.84840000000000
O         2.92780000000000    0.55230000000000    2.15020000000000
C         3.36330000000000    1.88660000000000    2.50259999999999
C         4.53140000000000    1.78590000000000    3.47740000000000
H         4.27910000000000    1.16090000000000    4.33690000000000
H         5.39390000000000    1.33790000000000    2.97340000000000
H         4.82390000000000    2.77870000000000    3.83820000000000
C         3.79700000000001    2.56850000000000    1.19670000000000
H         4.20020000000000    3.57090000000000    1.37680000000000
H         4.56740000000000    1.95560000000000    0.72110000000001
H         2.95240000000000    2.63260000000000    0.50540000000000
C         2.05039999999999    2.50090000000000    3.09320000000000
O         1.03750000000000    1.81620000000000    2.31910000000000
C         1.89100000000000    4.00450000000000    2.88650000000000
H         1.87290000000000    4.25440000000000    1.82410000000000
H         0.94939999999999    4.34260000000000    3.33170000000000
H         2.71080000000000    4.55150000000000    3.36630000000000
C         1.82469999999999    2.13200000000000    4.56520000000000
H         1.92610000000000    1.05330000000000    4.71320000000000
H         2.52610000000000    2.65280000000000    5.22540000000000
H         0.80630000000000    2.41580000000000    4.84900000000000
B         2.27820000000000   -1.33090000000000    0.17410000000000
O         2.89460000000002   -2.57740000000000    0.38450000000000
C         4.26930000000000   -2.48200000000000   -0.07210000000001
C         5.10900000000000   -2.05379999999999    1.14010000000000
H         4.76350000000000   -1.08740000000000    1.51750000000000
H         4.98050000000000   -2.79470000000000    1.93589999999999
H         6.17420000000000   -1.99290000000000    0.89300000000000
C         4.71949999999999   -3.84660000000000   -0.58469999999999
H         4.75280000000000   -4.56130000000000    0.24419999999999
H         5.72329999999999   -3.78370000000000   -1.02009999999999
H         4.03500000000000   -4.23600000000000   -1.34169999999999
C         4.16440000000000   -1.36220000000000   -1.16300000000000
O         3.08520000000001   -0.55030000000000   -0.65400000000000
C         5.40720000000000   -0.48870000000000   -1.31550000000000
H         6.27319999999999   -1.09010000000000   -1.61530000000000
H         5.23300000000000    0.26930000000000   -2.08589999999999
H         5.64270000000000    0.02650000000000   -0.38240000000001
C         3.71800000000000   -1.89829999999999   -2.53109999999999
H         2.82530000000000   -2.52160000000000   -2.42740000000000
H         3.46090000000000   -1.05250000000000   -3.17550000000000
H         4.50570000000001   -2.48290000000000   -3.01790000000000
H        -3.38499999999999   -4.00129999999999   -2.59310000000000
H        -5.21400000000000    1.52080000000000    1.29960000000000
C         0.23590000000000   -1.68140000000000    2.96030000000000
C        -0.99555945031922   -2.19763957584249    3.36239628764293
C         1.23622799051453   -1.69493922155415    3.93051552892122
C        -1.16660174013816   -2.69706220238346    4.64627471676747
H        -1.82845226912556   -2.25178411777266    2.67078426721685
N         1.10125887843797   -2.20250393245766    5.15191525723555
H         2.22648693006451   -1.31920419322470    3.70038899499254
C        -0.07416772718407   -2.73602356238380    5.50469090841686
H        -2.11957116597172   -3.10772747882289    4.95519734815891
C        -0.12252947897338   -3.45311771424323    6.83023265445982
C        -0.24405181241279   -2.52557014277416    8.01379034246932
H         0.81334720934912   -4.01245041258109    6.93306744708619
H        -0.95660380819119   -4.16076470870106    6.82824719155205
C        -1.25200321509689   -2.70422547333320    8.95731410973390
C         0.68184329244909   -1.50173516869049    8.20006788422493
C        -1.32693112114711   -1.88252979143185   10.07316553925586
H        -1.97763645160986   -3.49787006927978    8.82520338296725
C         0.60229931119620   -0.67656668768785    9.31175508434085
H         1.46061156745658   -1.36316674686148    7.46040500404478
C        -0.39812796419657   -0.86897636139724   10.25376080967595
H        -2.11010775532258   -2.03909570588662   10.80460361197036
H         1.32926530269418    0.11383961697002    9.44787601480804
H        -0.45313914280607   -0.23201319005053   11.12752731230453
108
 energy: -154.751814964437 gnorm: 0.045829397246 xtb: 6.4.0 (f63f532)
N        -0.96139543882707   -2.10010473602596   -0.25100881424936
C        -2.23978404969232   -1.68999217445978   -0.36434632712201
C        -3.13440543717444   -2.36176054696469   -1.20646528026210
C        -2.70399322782644   -3.46336321397790   -1.92183930175901
C        -1.38393941860314   -3.88214707450020   -1.78247617202182
C        -0.55366194570955   -3.16763952165096   -0.94086006085952
H         0.47995389497840   -3.44790239312356   -0.79090974604041
H        -1.00758375434636   -4.74236149528567   -2.31737311702408
H        -4.15489664175673   -2.02635352153990   -1.31055812321025
C        -2.61141143112364   -0.51321755352639    0.43560163032299
N        -1.61892909977624    0.06692742096149    1.14757778768911
C        -1.89748634369476    1.13876814862750    1.89386495756581
C        -3.16450293827620    1.68775355444155    1.98168398002895
C        -4.19585111078981    1.10344013120443    1.25493445318528
C        -3.91443215291584   -0.00320403442694    0.47497366802076
H        -4.70562963907982   -0.46644171505924   -0.09430932821042
H        -3.33945956929318    2.55097325608928    2.60831980766375
H        -1.05449966518599    1.55733736242482    2.42283799963440
Ir        0.42150000000000   -0.81650000000000    0.91330000000000
H         0.87260000000000   -2.23030000000000    1.54050000000000
B         0.49106068324547    0.42391739948596   -0.79057038956143
O         0.17531573788585   -0.03541398211839   -2.06269907474903
C         0.01102322222544    1.09633724463214   -2.94371014646355
C         0.49038387261107    0.74653608091226   -4.34842767377272
H         1.50931960992835    0.36979574847162   -4.32682373420041
H         0.44570278805201    1.62197205078586   -4.99687624757078
H        -0.14838421194295   -0.02937072426369   -4.76891259279578
C        -1.49306774686301    1.39885109975793   -2.97042260506409
H        -1.73114589358546    2.21171876661667   -3.65475500722995
H        -2.02307811582907    0.50175529133458   -3.29042901685627
H        -1.83989595302405    1.65394567505206   -1.96890474942168
C         0.83247942126165    2.20640622534776   -2.21249538485261
O         0.75549704609074    1.77963844768302   -0.83524839185978
C         2.31498653959195    2.19024156220879   -2.59986548909746
H         2.71936660398640    1.19121654263329   -2.44972581084387
H         2.46654903921215    2.51156591550464   -3.62963945254990
H         2.85707975050101    2.86512994041493   -1.93851289537457
C         0.28096992425041    3.62247613353609   -2.33994019115218
H        -0.72239050462088    3.69168509877366   -1.92787054683249
H         0.92053132204135    4.30620951000271   -1.78332003666011
H         0.26358895439462    3.93469400852714   -3.38423013975079
B         1.56484919515617    0.61762418188446    1.85535894809100
O         2.92495110138612    0.56559805449015    2.13574448893776
C         3.36306438689354    1.88696940203073    2.50957434906001
C         4.53240497266479    1.78904292497754    3.48072395457622
H         4.28005850736236    1.16050167797464    4.33071571987285
H         5.38756852450655    1.34494317787439    2.97303118591043
H         4.81476070817623    2.77944749562611    3.83680124616773
C         3.79900716813124    2.57421385325247    1.21112153660806
H         4.20035137087915    3.56981144767717    1.39541761368698
H         4.56313691973454    1.96263494405711    0.73438391808643
H         2.95096617924577    2.62669214507801    0.52960757412553
C         2.05276186461420    2.50512364202813    3.08951495273640
O         1.04018386278308    1.80910139423792    2.33573778255106
C         1.89364864381843    4.00718204310095    2.88851668465214
H         1.86841759676686    4.25072120965179    1.83017856223549
H         0.95623257154668    4.33632636285488    3.33519141792077
H         2.71412333616812    4.54324806739605    3.36482213508434
C         1.83130727007735    2.14139994322756    4.56181491699806
H         1.93295576050211    1.06588156972580    4.70159556905543
H         2.53234194791695    2.66292143811976    5.21082310031927
H         0.81679808754586    2.41971848789036    4.84663989163679
B         2.27820000000000   -1.33090000000000    0.17410000000000
O         2.90010350503176   -2.56173810562191    0.39086610690685
C         4.26513831636343   -2.48351378131520   -0.07691544226919
C         5.10950429555699   -2.05858044614294    1.12880595422504
H         4.75325325394704   -1.09855469928385    1.49978005613904
H         4.97764993272356   -2.79315803556797    1.92230474710049
H         6.16725579679861   -1.99875026682813    0.87684720088144
C         4.71988719554824   -3.84566138407363   -0.58675360965663
H         4.74954729388842   -4.54973049045449    0.24350408823909
H         5.71774754999934   -3.77391236578930   -1.01864410115112
H         4.03449351316603   -4.23337335796908   -1.33565819713424
C         4.16627434657134   -1.36065581016810   -1.15733863998685
O         3.07354631152750   -0.56391397447135   -0.66228867091053
C         5.40948502198234   -0.49231803634795   -1.31483251500107
H         6.26566295587414   -1.09822900820749   -1.61019506319837
H         5.23132152504225    0.25864406783018   -2.08333595965224
H         5.63695373279622    0.02217970858765   -0.38573786456533
C         3.72965647727103   -1.89992400197882   -2.52552709457318
H         2.83761194721744   -2.51539775240183   -2.41702433677625
H         3.47257233701793   -1.05844714737045   -3.16751886789860
H         4.51991843488459   -2.47704557585283   -3.00275834437412
H        -3.38327570334937   -3.98831981167299   -2.57966013166017
H        -5.19977617769928    1.50475296514482    1.29504296154851
C         0.23590000000001   -1.68140000000001    2.96030000000000
C        -0.99694091901834   -2.19701676421466    3.36347182003613
C         1.23587431405781   -1.69709751597541    3.93550954757279
C        -1.16615358577452   -2.69477381473681    4.64692422814144
H        -1.82945088833602   -2.25139397504273    2.67283903975624
N         1.09733939146470   -2.20237313508668    5.15161594807285
H         2.22571335130302   -1.32204876445724    3.70712776827692
C        -0.07369502529741   -2.73277353088436    5.50401409948210
H        -2.11786327510010   -3.10485562256161    4.95645796691898
C        -0.12339894226547   -3.44757083509553    6.82987553782190
C        -0.24470067481703   -2.52206735618983    8.01384542389511
H         0.81051902229402   -4.00771677979553    6.93309545005224
H        -0.95599281939343   -4.15412815403951    6.82792681144833
C        -1.25012879476539   -2.70058622334749    8.95585128128604
C         0.68000934615277   -1.50097520373697    8.20052659133843
C        -1.32509653027039   -1.88093483786946   10.07028014488801
H        -1.97489776392775   -3.49290861072104    8.82418111995805
C         0.60147413732813   -0.67740567032104    9.30987030923438
H         1.45711736239982   -1.36286193821734    7.46237055127117
C        -0.39778421277737   -0.86887439647484   10.25096688819364
H        -2.10713272387825   -2.03723695435859   10.80062657802428
H         1.32769246977006    0.11160514789258    9.44572860117294
H        -0.45243269571104   -0.23294296292440   11.12346332900713
108
 energy: -154.753388638130 gnorm: 0.036179738765 xtb: 6.4.0 (f63f532)
N        -0.95354129744660   -2.09241127774486   -0.25890650482268
C        -2.22999926977741   -1.68338159391913   -0.36759179851319
C        -3.12967274624318   -2.35411796300216   -1.20446644780270
C        -2.70737997383152   -3.45324311785898   -1.92032365107484
C        -1.38761701685763   -3.87235973819195   -1.78451578948708
C        -0.55750773856718   -3.15814858992264   -0.94763449894187
H         0.47490141790466   -3.44204153697368   -0.80550077955450
H        -1.01683214917119   -4.73226988906196   -2.31746262250497
H        -4.14891813940553   -2.01974305912186   -1.30067254891332
C        -2.59829718257625   -0.51520208200084    0.42835646949517
N        -1.60871090629333    0.06050429142559    1.14211306207085
C        -1.89387500225095    1.12699293767347    1.88356399474597
C        -3.15672440169288    1.67656474086399    1.97320543194174
C        -4.18819963345883    1.09263033263717    1.24643040272999
C        -3.90211562916870   -0.00759562146462    0.46664260445260
H        -4.69046478802877   -0.47262039361134   -0.10075152626794
H        -3.33246529232953    2.53575850975721    2.59965205334895
H        -1.05616149110920    1.55121981119858    2.41334645057719
Ir        0.42150000000000   -0.81650000000000    0.91330000000000
H         0.87260000000000   -2.23030000000000    1.54050000000000
B         0.49412239996922    0.43387163654651   -0.76894187178509
O         0.15574311285986   -0.02617694805082   -2.03339544058394
C         0.00684385720540    1.09326509941301   -2.92447349968102
C         0.49185014030456    0.73786760110571   -4.32618369426069
H         1.50705215424845    0.35731741817408   -4.30487557540193
H         0.44784632702150    1.61629398394071   -4.96511685573111
H        -0.15079526667259   -0.03192994942237   -4.74547167640388
C        -1.49542231660152    1.40557307841432   -2.97126510577879
H        -1.71466126197978    2.21467823259579   -3.66150150526575
H        -2.02488738629610    0.51092844926287   -3.29231420483029
H        -1.84525391615844    1.66446561420161   -1.97402425436021
C         0.82531542275837    2.20564842701647   -2.19998258878232
O         0.75935597410798    1.78341919621627   -0.82729808430720
C         2.30539207481484    2.19451765323327   -2.59711917839752
H         2.70716615890802    1.19720930579712   -2.43973709299252
H         2.44387903447108    2.50820960972058   -3.62792415556154
H         2.84720364377018    2.87430527273935   -1.94414693980942
C         0.27133012604653    3.62025485399597   -2.33695086689157
H        -0.72804295006224    3.69560322143250   -1.92169898915266
H         0.91599617309356    4.30290768948540   -1.78993753755607
H         0.25474113812333    3.91553864463795   -3.38277435760193
B         1.56732516899386    0.62390372525071    1.86307281819656
O         2.92318400256425    0.57634485705035    2.12420677865903
C         3.36149530752798    1.88840520506512    2.51263052667721
C         4.52870189478332    1.78912344782827    3.48693025334755
H         4.27919201147362    1.15563698091774    4.33118624949225
H         5.38192036358709    1.35248920337479    2.97515988643906
H         4.80092694292971    2.77902466032734    3.84186446138677
C         3.80263995329852    2.58649212586441    1.22196949370832
H         4.20055979903143    3.57815333707292    1.41460620803066
H         4.56618214638777    1.97762134480789    0.74545387636904
H         2.95346620175337    2.63367713095916    0.54451885335088
C         2.05294018637087    2.50521348857427    3.09150682971789
O         1.04184369242773    1.80200166157305    2.35088353747712
C         1.89533522610723    4.00705401359189    2.88758065931190
H         1.86244119189926    4.24865084843913    1.83114902470530
H         0.96288221306473    4.33274551438035    3.34039318576875
H         2.71943478252922    4.53464165765035    3.35913085965965
C         1.84122317679769    2.15119246698471    4.56827847738236
H         1.94498427069021    1.07733319133617    4.70442224828782
H         2.54481841127478    2.67693562450603    5.20569303744463
H         0.82874585439630    2.42704870974562    4.85417017629450
B         2.27820000000000   -1.33089999999999    0.17410000000000
O         2.90157956425026   -2.54965007076810    0.40017947005784
C         4.25785874290041   -2.48180463917488   -0.07621297641919
C         5.11232510162999   -2.06027185145919    1.12304496791606
H         4.75131566095897   -1.10290975837623    1.49069170056052
H         4.98081256418536   -2.79287610895056    1.91489736771241
H         6.16451182131472   -2.00185783927474    0.86238285303410
C         4.71144118529036   -3.84388710744076   -0.58837826326753
H         4.74340664408163   -4.54126137878705    0.24366457836935
H         5.70539921104216   -3.76311585609352   -1.01902215171844
H         4.02616484404648   -4.23345557792977   -1.33296296136096
C         4.16184335163493   -1.36120119088938   -1.15516445448781
O         3.06152291334971   -0.57344422389002   -0.67060908327018
C         5.40645706900371   -0.49438494644625   -1.30785955382091
H         6.25510166215777   -1.10769108963749   -1.59709843528436
H         5.23013509089833    0.24973798161474   -2.07955065874389
H         5.63012578095321    0.02245469427645   -0.38182377746523
C         3.74061992849919   -1.90438552842888   -2.52724558633359
H         2.84956366662594   -2.51721661323284   -2.41834867140654
H         3.48761556270038   -1.06481748827183   -3.16994533928621
H         4.53742680256808   -2.47730157834143   -2.99106106548067
H        -3.38836334994868   -3.97869300065220   -2.57154161054470
H        -5.19088842800950    1.48948599394455    1.28988341330374
C         0.23590000000002   -1.68140000000004    2.96029999999999
C        -0.99806496538692   -2.19562304528963    3.36456720973358
C         1.23592647783376   -1.69772199924265    3.93881148214653
C        -1.16747537451085   -2.69109217526051    4.64834639060254
H        -1.83040625526745   -2.24964692733807    2.67428151095147
N         1.09419342786358   -2.20112388325106    5.15155920624534
H         2.22574667954543   -1.32408628160818    3.70976569623524
C        -0.07455501148060   -2.72889302088145    5.50471193872451
H        -2.11907870053646   -3.09975747156559    4.95836398355006
C        -0.12563551827607   -3.44352940206069    6.83004170191059
C        -0.24592556914610   -2.51803193821095    8.01314533410520
H         0.80749794481793   -4.00392815917876    6.93356278239066
H        -0.95837439562522   -4.14859605529289    6.82804678397077
C        -1.25024570076541   -2.69598220664116    8.95447774528289
C         0.67901631285897   -1.49825128386347    8.19941173495220
C        -1.32451967078005   -1.87707629080574   10.06853917577063
H        -1.97510318530808   -3.48739367356379    8.82319742834162
C         0.60177727996475   -0.67531085467526    9.30791206415492
H         1.45561247742506   -1.36101096821131    7.46197789400720
C        -0.39713028892019   -0.86595513509430   10.24917575403358
H        -2.10584755947331   -2.03306927800364   10.79858115460091
H         1.32819343169645    0.11255265948103    9.44370486634008
H        -0.45109281340675   -0.23043179183365   11.12098926152510
108
 energy: -154.753892283650 gnorm: 0.035508009857 xtb: 6.4.0 (f63f532)
N        -0.94446510670490   -2.08921266849419   -0.26920211101458
C        -2.22180789536118   -1.68026920567675   -0.37262251036219
C        -3.12635986178119   -2.35107410492540   -1.20537928170553
C        -2.70954747060565   -3.45056615629449   -1.92250232588970
C        -1.38792110919090   -3.86962495365111   -1.79280214394978
C        -0.55377402690224   -3.15429296823345   -0.96067142031296
H         0.47867088424603   -3.44181450919723   -0.82361875633324
H        -1.02106241618559   -4.73039473823631   -2.32613684463760
H        -4.14552027246303   -2.01504370065379   -1.29570035046827
C        -2.58843625578978   -0.51551641512480    0.42325320095594
N        -1.59953712934762    0.06011564481635    1.13873787662493
C        -1.88805620655518    1.12600294320078    1.87891433970952
C        -3.15146514950056    1.67345470930151    1.96986567741963
C        -4.18326053721502    1.08782440564768    1.24232794790348
C        -3.89363858071237   -0.00949913659475    0.46114078144023
H        -4.67935484192316   -0.47525158168280   -0.10905722531806
H        -3.32883292261179    2.53044156565722    2.59784933364930
H        -1.05367783664824    1.55181047266729    2.41328685131158
Ir        0.42150000000000   -0.81650000000000    0.91330000000000
H         0.87260000000000   -2.23030000000000    1.54050000000000
B         0.48104047570120    0.44714022426148   -0.75094780450389
O         0.13506840607275   -0.01824438545228   -2.01113655067116
C        -0.00108648617719    1.09326951599741   -2.90874597214205
C         0.49155876868532    0.72756767328917   -4.30594329684952
H         1.50426634211093    0.34114981491740   -4.27776514509140
H         0.45515708233064    1.60552775690184   -4.94543437517527
H        -0.15391597555166   -0.03955811347721   -4.72540876126151
C        -1.50210327771995    1.41377580427268   -2.97181664587929
H        -1.70681684590729    2.22085231172832   -3.66835492122286
H        -2.03257110024583    0.52058870728214   -3.29463415087308
H        -1.86035036309597    1.67917974387116   -1.97941160624267
C         0.81817580919494    2.20782968297928   -2.18805176589293
O         0.75987912460709    1.79191475958193   -0.81621287413870
C         2.29695140923295    2.19813968656821   -2.59329877778084
H         2.70098594222229    1.20281310489472   -2.42962217946654
H         2.42714131787154    2.50401307695080   -3.62715682015091
H         2.83957519840114    2.88501381873358   -1.94865971624045
C         0.26288409517125    3.62211101101580   -2.33230558281041
H        -0.73447948519680    3.70116387383497   -1.91329729386806
H         0.91095431601077    4.30895865397310   -1.79474883011553
H         0.24193777487774    3.90555633719430   -3.38110023158111
B         1.56829935928025    0.62655116977714    1.86809644040154
O         2.92405693283070    0.58271215248961    2.11465181092694
C         3.36113760614504    1.88998997488491    2.51458688149654
C         4.52711243278889    1.78730214402872    3.49146095403558
H         4.27857052344791    1.14766502709026    4.33120727521378
H         5.38287497515950    1.35783700256177    2.97805632021623
H         4.79271134008184    2.77669039942555    3.85212392679088
C         3.80652230748938    2.59881838880904    1.23023359344246
H         4.20071728419668    3.58961282823589    1.43231995318915
H         4.57363123330747    1.99488311971598    0.75328414467741
H         2.95923340378153    2.64762256743440    0.55089453722806
C         2.05282961845679    2.50507826725166    3.09603422802968
O         1.04054833371960    1.79615430934594    2.36564148854143
C         1.89341717557982    4.00707366801583    2.88813493208164
H         1.85269144073728    4.24621249939895    1.83144417757706
H         0.96499834264996    4.33428655483718    3.34785779042884
H         2.72244357930262    4.53309442575232    3.35220099749509
C         1.85053619545927    2.15936407367061    4.57704525562382
H         1.95717141073159    1.08647857812133    4.71721198850564
H         2.55771238287786    2.69067173286516    5.20527474073310
H         0.83939122716313    2.43524220925570    4.86683420705167
B         2.27820000000000   -1.33089999999999    0.17410000000000
O         2.90262498431716   -2.54372482011914    0.40973482430583
C         4.25346507360364   -2.48125419021874   -0.07434835680506
C         5.11638983419050   -2.06084761199771    1.12024648443311
H         4.75681821037483   -1.10344012145180    1.48885361405877
H         4.98786246717639   -2.79360290893053    1.91218843182915
H         6.16628894444011   -2.00356659746078    0.85241391291806
C         4.70322723106703   -3.84526861640400   -0.58731982553536
H         4.73839406133198   -4.54091793802142    0.24579462690830
H         5.69513398182006   -3.76231150544324   -1.02140235051170
H         4.01524100495495   -4.23548547539483   -1.32889341207622
C         4.15861451521526   -1.36227029919780   -1.15509781737936
O         3.05300035553752   -0.57855782883643   -0.67973781477964
C         5.40336132221114   -0.49375469211861   -1.30236101936183
H         6.25194135099283   -1.11048082525186   -1.58369380411444
H         5.23151820666453    0.24666943240378   -2.07840871118527
H         5.62156435363904    0.02635657564528   -0.37702296706801
C         3.75029072464301   -1.90908960417325   -2.53060950112511
H         2.85965305722079   -2.52308432041743   -2.42758846426714
H         3.50274042527193   -1.07089332436268   -3.17705726999872
H         4.55348994961248   -2.48094422663665   -2.98371634642498
H        -3.39390724645248   -3.97571059131801   -2.57008147445569
H        -5.18677401178873    1.48166940018900    1.28678617152001
C         0.23590000000003   -1.68140000000007    2.96029999999999
C        -0.99884305545940   -2.19335832524823    3.36524706609442
C         1.23617411757828   -1.69781760860512    3.93953672098937
C        -1.16940734837290   -2.68733287178284    4.64944212359301
H        -1.83105517092033   -2.24710045038583    2.67473970710519
N         1.09279120379129   -2.20016456140043    5.15166601603351
H         2.22590038804494   -1.32454935357118    3.70946430872181
C        -0.07610826316279   -2.72624248561948    5.50552674604302
H        -2.12179403884442   -3.09379602665209    4.95986150598961
C        -0.12818369693312   -3.44052160495472    6.83080218353732
C        -0.24725521429878   -2.51411780726356    8.01300573287754
H         0.80438776792276   -4.00175758432247    6.93456696326073
H        -0.96193034527981   -4.14420410200012    6.82889099359311
C        -1.25160944546120   -2.69074245617835    8.95435794248794
C         0.67869655138588   -1.49491669942193    8.19837650629752
C        -1.32487302110010   -1.87136212944679   10.06825364082653
H        -1.97725313548504   -3.48148399491445    8.82343215748472
C         0.60245492383818   -0.67150282733840    9.30655200695518
H         1.45511345018845   -1.35851812370279    7.46061099764795
C        -0.39646078184555   -0.86104063827553   10.24834171927658
H        -2.10603821514842   -2.02661746460574   10.79854579615319
H         1.32952382759342    0.11576295531622    9.44199947175106
H        -0.44942397949871   -0.22533762423522   11.11997420229311
108
 energy: -154.754451939426 gnorm: 0.035868508964 xtb: 6.4.0 (f63f532)
N        -0.93162163582910   -2.08827357648937   -0.28321901770912
C        -2.21038897373231   -1.67816136341596   -0.38035027490526
C        -3.12042362662502   -2.34845852140253   -1.20940638780597
C        -2.71013104546178   -3.44813306930143   -1.92931566386175
C        -1.38595261501127   -3.86676657722343   -1.80884177291696
C        -0.54605282382364   -3.15150293021665   -0.98125718879378
H         0.48815845785782   -3.44025275719315   -0.85530185041431
H        -1.02356511791058   -4.72755110766829   -2.34553987002539
H        -4.13991351108655   -2.01030181724045   -1.29155675158385
C        -2.57510128746851   -0.51618905387034    0.41676333728391