16
 energy: -23.629492598720 gnorm: 0.000214683232 xtb: 6.4.1 (1a32961)
C         0.99764026086784   -1.42239798712025   -0.00710591945441
C         2.15414608250958   -0.67536824110989   -0.00800570900884
C         2.11806567842754    0.72282136425351   -0.01416317588183
C         0.92255523237096    1.40903117001727   -0.02012390568129
C        -0.24939140419282    0.66169563641540   -0.01956967569390
N        -1.55535837061927    1.05582634515808   -0.02466372622537
C        -2.35357634597794   -0.05383534461340   -0.02088378476235
C        -1.58757991260874   -1.17948373256599   -0.01433902492343
C        -0.22838281027933   -0.75610326934560   -0.01293081556574
H         1.03275362631282   -2.50234679903130   -0.00196305537388
H         3.11365456222223   -1.17300825586103   -0.00352582068304
H         3.04858786489211    1.27203086833549   -0.01455580432115
H         0.89745524463024    2.48899571569377   -0.02540729914181
H        -1.87910511118544    2.00777944999097   -0.03019587625845
H        -3.42274240968536    0.04160803508049   -0.02382595777885
H        -1.93768218768441   -2.19293495529752   -0.01044044924567
