11
 energy: -24.435040684342 gnorm: 0.059030487861 xtb: 6.4.1 (1a32961)
C         0.01270000000000   -1.39513000000000   -0.00002000000000
C         1.21464000000000   -0.69944000000000   -0.00270000000000
F         2.37113000000000   -1.37654000000000   -0.00699000000000
C         1.17591000000000    0.68620000000000   -0.00214000000000
Cl        2.61143000000000    1.62623000000000   -0.01569000000000
N         0.03298000000000    1.41222000000000    0.00481000000000
C        -1.12104000000000    0.70882000000000    0.00916000000000
C        -1.18181000000000   -0.67901000000000    0.00519000000000
H         0.01530000000000   -2.48020000000000   -0.00228000000000
H        -2.02808000000000    1.30845000000000    0.01603000000000
H        -2.13939000000000   -1.18938000000000    0.00611000000000
11
 energy: -24.437466633912 gnorm: 0.023896457172 xtb: 6.4.1 (1a32961)
C         0.00660660775151   -1.39866423348072   -0.00001160127647
C         1.20040310034146   -0.69513220353043   -0.00414194971470
F         2.36587853628929   -1.36180139134347   -0.00842924402576
C         1.16383187092102    0.69227039407086   -0.00374911337792
Cl        2.60799122243811    1.62496435465844   -0.01185762550703
N         0.03037504813876    1.38653204276832    0.00368066533791
C        -1.11195821885681    0.70385717943832    0.00870992464536
C        -1.17902350653553   -0.67972124726867    0.00597446092340
H         0.01708008623109   -2.47893216675418   -0.00163517041485
H        -2.00539769024462    1.31331784448385    0.01471505554199
H        -2.13201705647430   -1.18447057304232    0.00822459786807
11
 energy: -24.437869058038 gnorm: 0.004089316593 xtb: 6.4.1 (1a32961)
C         0.00347379854580   -1.40087477576688   -0.00003075762845
C         1.19304612248048   -0.69255543574883   -0.00426309106541
F         2.36605198758026   -1.35244135198679   -0.01017020497418
C         1.15828172374088    0.69869082828776   -0.00293187204223
Cl        2.61446189827606    1.62034457182546   -0.01028140952906
N         0.02891909587971    1.37163438632475    0.00308320026228
C        -1.11138054959222    0.70322920547534    0.00765056259244
C        -1.18124052541998   -0.68097400005106    0.00612550643590
H         0.02250778378007   -2.47885566523692   -0.00142001704205
H        -1.99816021588036    1.31926056979199    0.01372120581540
H        -2.13219111939069   -1.18523833291482    0.00999687717536
11
 energy: -24.437888651690 gnorm: 0.002076073627 xtb: 6.4.1 (1a32961)
C         0.00358233592802   -1.40028602152431    0.00016952309531
C         1.19293453428899   -0.69246425980171   -0.00475034953297
F         2.36687942672624   -1.35225899417732   -0.01080366943186
C         1.15861168203127    0.70015343872387   -0.00342750737524
Cl        2.61871994891040    1.61803422086728   -0.00938178213072
N         0.02853016709970    1.37168211218467    0.00308562086944
C        -1.11364568615235    0.70376424702765    0.00811049758570
C        -1.18250016086732   -0.68094156917402    0.00665987236446
H         0.02431036026535   -2.47837377621882   -0.00123558511922
H        -2.00058391504288    1.31975094821886    0.01279153374366
H        -2.13306869318742   -1.18684034612614    0.01026184593144
11
 energy: -24.437892741802 gnorm: 0.000833154881 xtb: 6.4.1 (1a32961)
C         0.00376447624635   -1.39978308922306    0.00011203322925
C         1.19270407257799   -0.69246550386628   -0.00447722052962
F         2.36725901138091   -1.35211444053152   -0.01097216928568
C         1.15835362559056    0.70109846410572   -0.00291991447025
Cl        2.62127315366187    1.61625078629085   -0.00950823540578
N         0.02831531862929    1.37220204203515    0.00297075378379
C        -1.11494602608231    0.70393266539928    0.00743771018672
C        -1.18310161666665   -0.68071430358753    0.00628699837215
H         0.02528520073715   -2.47803814987549   -0.00121289214220
H        -2.00188476897286    1.31983424073078    0.01321033946454
H        -2.13325244710231   -1.18798271147790    0.01055259679706
11
 energy: -24.437893171331 gnorm: 0.000328133184 xtb: 6.4.1 (1a32961)
C         0.00391317786810   -1.39972186771267    0.00028307958721
C         1.19258707647828   -0.69254536249696   -0.00483494207093
F         2.36737288119266   -1.35184026875023   -0.01115499266996
C         1.15787584610134    0.70126428165392   -0.00341342107586
Cl        2.62163591050020    1.61568771960265   -0.00925377641813
N         0.02830259805376    1.37254936914659    0.00322057461771
C        -1.11509606017168    0.70378104647330    0.00839158864190
C        -1.18309091525338   -0.68050631207508    0.00690519536746
H         0.02519669249892   -2.47804529532744   -0.00117742220127
H        -2.00190872081120    1.31982408616395    0.01227415846959
H        -2.13301848645701   -1.18822739667804    0.01023995775227
