      -----------------------------------------------------------      
     |                   =====================                   |     
     |                           x T B                           |     
     |                   =====================                   |     
     |                         S. Grimme                         |     
     |          Mulliken Center for Theoretical Chemistry        |     
     |                    University of Bonn                     |     
      -----------------------------------------------------------      

   * xtb version 6.4.0 (f63f532) compiled by 'knkr256@seskscpg008.prim.scp' on 2021-04-09

   xtb is free software: you can redistribute it and/or modify it under
   the terms of the GNU Lesser General Public License as published by
   the Free Software Foundation, either version 3 of the License, or
   (at your option) any later version.
   
   xtb is distributed in the hope that it will be useful,
   but WITHOUT ANY WARRANTY; without even the implied warranty of
   MERCHANTABILITY or FITNESS FOR A PARTICULAR PURPOSE.  See the
   GNU Lesser General Public License for more details.
   
   Cite this work as:
   * C. Bannwarth, E. Caldeweyher, S. Ehlert, A. Hansen, P. Pracht,
     J. Seibert, S. Spicher, S. Grimme, WIREs Comput. Mol. Sci., 2020, 11,
     e01493. DOI: 10.1002/wcms.1493
   
   for GFN2-xTB:
   * C. Bannwarth, S. Ehlert and S. Grimme., J. Chem. Theory Comput., 2019,
     15, 1652-1671. DOI: 10.1021/acs.jctc.8b01176
   for GFN1-xTB:
   * S. Grimme, C. Bannwarth, P. Shushkov, J. Chem. Theory Comput., 2017,
     13, 1989-2009. DOI: 10.1021/acs.jctc.7b00118
   for GFN0-xTB:
   * P. Pracht, E. Caldeweyher, S. Ehlert, S. Grimme, ChemRxiv, 2019, preprint.
     DOI: 10.26434/chemrxiv.8326202.v1
   for GFN-FF:
   * S. Spicher and S. Grimme, Angew. Chem. Int. Ed., 2020, 59, 15665-15673.
     DOI: 10.1002/anie.202004239
   
   for DFT-D4:
   * E. Caldeweyher, C. Bannwarth and S. Grimme, J. Chem. Phys., 2017,
     147, 034112. DOI: 10.1063/1.4993215
   * E. Caldeweyher, S. Ehlert, A. Hansen, H. Neugebauer, S. Spicher,
     C. Bannwarth and S. Grimme, J. Chem. Phys., 2019, 150, 154122.
     DOI: 10.1063/1.5090222
   * E. Caldeweyher, J.-M. Mewes, S. Ehlert and S. Grimme, Phys. Chem. Chem. Phys.
     2020, 22, 8499-8512. DOI: 10.1039/D0CP00502A
   
   for sTDA-xTB:
   * S. Grimme and C. Bannwarth, J. Chem. Phys., 2016, 145, 054103.
     DOI: 10.1063/1.4959605
   
   in the mass-spec context:
   * V. Asgeirsson, C. Bauer and S. Grimme, Chem. Sci., 2017, 8, 4879.
     DOI: 10.1039/c7sc00601b
   * J. Koopman and S. Grimme, ACS Omega 2019, 4, 12, 15120-15133.
     DOI: 10.1021/acsomega.9b02011
   
   for metadynamics refer to:
   * S. Grimme, J. Chem. Theory Comput., 2019, 155, 2847-2862
     DOI: 10.1021/acs.jctc.9b00143
   
   for SPH calculations refer to:
   * S. Spicher and S. Grimme, J. Chem. Theory Comput., 2021, 17, 1701-1714
     DOI: 10.1021/acs.jctc.0c01306
   
   with help from (in alphabetical order)
   P. Atkinson, C. Bannwarth, F. Bohle, G. Brandenburg, E. Caldeweyher
   M. Checinski, S. Dohm, S. Ehlert, S. Ehrlich, I. Gerasimov, J. Koopman
   C. Lavinge, S. Lehtola, F. März, M. Müller, F. Musil, H. Neugebauer
   J. Pisarek, P. Pracht, J. Seibert, P. Shushkov, S. Spicher, M. Stahn
   T. Strunk, J. Stückrath, T. Rose, and J. Unsleber
   
 * started run on 2021/10/08 at 07:10:12.488     

           -------------------------------------------------
          |                Calculation Setup                |
           -------------------------------------------------

          program call               : xtb xtbopt.xyz --sp --alpb thf -P 6
          hostname                   : seskscpg010.prim.scp
          coordinate file            : xtbopt.xyz
          omp threads                :                     6
          number of atoms            :                    97
          number of electrons        :                   252
          charge                     :                     0
          spin                       :                   0.0
          first test random number   :      0.36889006726241

   ID    Z sym.   atoms
    1    7 N      1, 11, 87
    2    6 C      2-6, 10, 12-15, 23, 24, 28, 32, 34, 38, 44, 45, 49, 53, 55,
                  59, 65, 66, 70, 74, 76, 80, 86, 88-91
    3    1 H      7-9, 16-18, 20, 25-27, 29-31, 35-37, 39-41, 46-48, 50-52,
                  56-58, 60-62, 67-69, 71-73, 77-79, 81-85, 92-97
    4   77 Ir     19
    5    5 B      21, 42, 63
    6    8 O      22, 33, 43, 54, 64, 75

molecular fragmentation (1/2 indicates fragments):
111111111111111111111111111111111111111111111111111111111111111111111111
1111111111111222222222222
# atoms in fragment 1/2:    85    12
 fragment masses (1/2) :      730.32       80.11
CMA distance (Bohr)    :   8.238
constraining FC (au)   :  0.0500

           -------------------------------------------------
          |                 G F N 2 - x T B                 |
           -------------------------------------------------

        Reference                      10.1021/acs.jctc.8b01176
      * Hamiltonian:
        H0-scaling (s, p, d)           1.850000    2.230000    2.230000
        zeta-weighting                 0.500000
      * Dispersion:
        s8                             2.700000
        a1                             0.520000
        a2                             5.000000
        s9                             5.000000
      * Repulsion:
        kExp                           1.500000    1.000000
        rExp                           1.000000
      * Coulomb:
        alpha                          2.000000
        third order                    shell-resolved
        anisotropic                    true
        a3                             3.000000
        a5                             4.000000
        cn-shift                       1.200000
        cn-exp                         4.000000
        max-rad                        5.000000

      * Solvation model:               ALPB
        Solvent                        thf
        Parameter file                 internal GFN2-xTB/ALPB
        Dielectric constant                7.6000E+00
        Reference state                gsolv [1 M gas/solution]
        Free energy shift                  5.3248E-03 Eh       3.3414E+00 kcal/mol
        Temperature                        2.9815E+02 K
        Density                            8.8300E-01 kg/L
        Solvent mass                       7.2106E+01 g/mol
        Interaction kernel             P16
        Born radius scaling (c1)           1.7311E+00
        Born radii integrator          GBOBC
        Born offset                        0.0000E+00 a0       0.0000E+00 AA
        H-bond correction              true
        Ion screening                  false
        Surface tension                    1.0000E-05 Eh       1.5569E+01 dyn/cm
        Grid points                               230 per atom
q/qsh data taken from xtbrestart
CAMM data taken from xtbrestart

          ...................................................
          :                      SETUP                      :
          :.................................................:
          :  # basis functions                 241          :
          :  # atomic orbitals                 240          :
          :  # shells                          144          :
          :  # electrons                       252          :
          :  max. iterations                   250          :
          :  Hamiltonian                  GFN2-xTB          :
          :  restarted?                       true          :
          :  GBSA solvation                   true          :
          :  PC potential                    false          :
          :  electronic temp.          300.0000000     K    :
          :  accuracy                    1.0000000          :
          :  -> integral cutoff          0.2500000E+02      :
          :  -> integral neglect         0.1000000E-07      :
          :  -> SCF convergence          0.1000000E-05 Eh   :
          :  -> wf. convergence          0.1000000E-03 e    :
          :  Broyden damping             0.4000000          :
          ...................................................

 iter      E             dE          RMSdq      gap      omega  full diag
   1   -139.4926444 -0.139493E+03  0.890E-05    0.85       0.0  T
   2   -139.4926444  0.431606E-08  0.231E-04    0.85      43.9  T
   3   -139.4926444 -0.494913E-08  0.288E-05    0.85     352.4  T

   *** convergence criteria satisfied after 3 iterations ***

         #    Occupation            Energy/Eh            Energy/eV
      -------------------------------------------------------------
         1        2.0000           -0.6732405             -18.3198
       ...           ...                  ...                  ...
       120        2.0000           -0.3553817              -9.6704
       121        2.0000           -0.3444370              -9.3726
       122        2.0000           -0.3242367              -8.8229
       123        2.0000           -0.3174932              -8.6394
       124        2.0000           -0.3142349              -8.5508
       125        2.0000           -0.3071397              -8.3577
       126        2.0000           -0.3062624              -8.3338 (HOMO)
       127        0.0000           -0.2751694              -7.4877 (LUMO)
       128                         -0.2472147              -6.7271
       129                         -0.2445785              -6.6553
       130                         -0.2040279              -5.5519
       131                         -0.1932938              -5.2598
       ...                                ...                  ...
       240                          3.8611377             105.0669
      -------------------------------------------------------------
                  HL-Gap            0.0310930 Eh            0.8461 eV
             Fermi-level           -0.2905569 Eh           -7.9065 eV

 SCC (total)                   0 d,  0 h,  0 min,  0.096 sec
 SCC setup                      ...        0 min,  0.004 sec (  3.725%)
 Dispersion                     ...        0 min,  0.002 sec (  1.991%)
 classical contributions        ...        0 min,  0.000 sec (  0.143%)
 integral evaluation            ...        0 min,  0.024 sec ( 24.905%)
 iterations                     ...        0 min,  0.030 sec ( 31.575%)
 molecular gradient             ...        0 min,  0.036 sec ( 37.073%)
 printout                       ...        0 min,  0.001 sec (  0.530%)

         :::::::::::::::::::::::::::::::::::::::::::::::::::::
         ::                     SUMMARY                     ::
         :::::::::::::::::::::::::::::::::::::::::::::::::::::
         :: total energy            -137.733052418500 Eh    ::
         :: total w/o Gsasa/hb      -137.695873729172 Eh    ::
         :: gradient norm              0.033933383337 Eh/a0 ::
         :: HOMO-LUMO gap              0.846084840696 eV    ::
         ::.................................................::
         :: SCC energy              -139.492644430076 Eh    ::
         :: -> isotropic ES            0.238504639058 Eh    ::
         :: -> anisotropic ES          0.016356868101 Eh    ::
         :: -> anisotropic XC          0.046904839909 Eh    ::
         :: -> dispersion             -0.134712764019 Eh    ::
         :: -> Gsolv                  -0.047322456271 Eh    ::
         ::    -> Gelec               -0.010143766943 Eh    ::
         ::    -> Gsasa               -0.040138997356 Eh    ::
         ::    -> Ghb                 -0.002364507416 Eh    ::
         ::    -> Gshift               0.005324815444 Eh    ::
         :: repulsion energy           1.751357844471 Eh    ::
         :: add. restraining           0.000000000000 Eh    ::
         :: total charge               0.000000000571 e     ::
         :::::::::::::::::::::::::::::::::::::::::::::::::::::

           -------------------------------------------------
          |                Property Printout                |
           -------------------------------------------------

    * Orbital Energies and Occupations

         #    Occupation            Energy/Eh            Energy/eV
      -------------------------------------------------------------
         1        2.0000           -0.6732405             -18.3198
       ...           ...                  ...                  ...
       114        2.0000           -0.3942936             -10.7293
       115        2.0000           -0.3872183             -10.5367
       116        2.0000           -0.3851065             -10.4793
       117        2.0000           -0.3810247             -10.3682
       118        2.0000           -0.3802290             -10.3466
       119        2.0000           -0.3611414              -9.8272
       120        2.0000           -0.3553817              -9.6704
       121        2.0000           -0.3444370              -9.3726
       122        2.0000           -0.3242367              -8.8229
       123        2.0000           -0.3174932              -8.6394
       124        2.0000           -0.3142349              -8.5508
       125        2.0000           -0.3071397              -8.3577
       126        2.0000           -0.3062624              -8.3338 (HOMO)
       127        0.0000           -0.2751694              -7.4877 (LUMO)
       128                         -0.2472147              -6.7271
       129                         -0.2445785              -6.6553
       130                         -0.2040279              -5.5519
       131                         -0.1932938              -5.2598
       132                         -0.1580702              -4.3013
       133                         -0.1481873              -4.0324
       134                         -0.1253934              -3.4121
       135                         -0.1233438              -3.3564
       136                         -0.1169454              -3.1822
       137                         -0.1095716              -2.9816
       ...                                ...                  ...
       240                          3.8611377             105.0669
      -------------------------------------------------------------
                  HL-Gap            0.0310930 Eh            0.8461 eV
             Fermi-level           -0.2905569 Eh           -7.9065 eV

     #   Z          covCN         q      C6AA      α(0)
     1   7 N        2.532    -0.127    23.792     7.244
     2   6 C        2.954     0.077    26.288     8.410
     3   6 C        2.918    -0.042    29.047     8.838
     4   6 C        2.924    -0.023    28.575     8.766
     5   6 C        2.915    -0.044    29.090     8.844
     6   6 C        2.891     0.047    26.933     8.509
     7   1 H        0.925     0.051     2.308     2.376
     8   1 H        0.926     0.053     2.277     2.359
     9   1 H        0.926     0.045     2.384     2.414
    10   6 C        2.953     0.070    26.426     8.431
    11   7 N        2.561    -0.123    23.705     7.231
    12   6 C        2.889     0.044    27.012     8.521
    13   6 C        2.915    -0.045    29.126     8.850
    14   6 C        2.922    -0.026    28.642     8.776
    15   6 C        2.918    -0.047    29.159     8.855
    16   1 H        0.926     0.046     2.375     2.410
    17   1 H        0.926     0.051     2.310     2.377
    18   1 H        0.926     0.075     2.033     2.230
    19  77 Ir       5.926    -0.166   389.468    36.495
    20   1 H        0.977     0.094     1.832     2.115
    21   5 B        2.625     0.401    16.070     6.777
    22   8 O        1.638    -0.411    21.066     6.195
    23   6 C        3.834     0.130    18.448     6.111
    24   6 C        3.755    -0.120    22.850     6.816
    25   1 H        0.925     0.052     2.298     2.371
    26   1 H        0.925     0.044     2.397     2.421
    27   1 H        0.925     0.050     2.321     2.382
    28   6 C        3.754    -0.109    22.645     6.785
    29   1 H        0.925     0.047     2.363     2.404
    30   1 H        0.925     0.042     2.425     2.435
    31   1 H        0.925     0.028     2.612     2.528
    32   6 C        3.838     0.131    18.431     6.107
    33   8 O        1.637    -0.406    20.968     6.181
    34   6 C        3.755    -0.120    22.848     6.816
    35   1 H        0.925     0.051     2.304     2.374
    36   1 H        0.925     0.044     2.392     2.418
    37   1 H        0.925     0.048     2.351     2.398
    38   6 C        3.754    -0.119    22.835     6.814
    39   1 H        0.925     0.047     2.361     2.403
    40   1 H        0.925     0.052     2.301     2.372
    41   1 H        0.925     0.044     2.393     2.419
    42   5 B        2.627     0.407    15.990     6.758
    43   8 O        1.637    -0.386    20.587     6.125
    44   6 C        3.838     0.129    18.464     6.113
    45   6 C        3.754    -0.124    22.943     6.830
    46   1 H        0.925     0.054     2.273     2.358
    47   1 H        0.925     0.055     2.261     2.352
    48   1 H        0.925     0.049     2.337     2.391
    49   6 C        3.755    -0.121    22.871     6.819
    50   1 H        0.925     0.047     2.356     2.400
    51   1 H        0.925     0.044     2.392     2.419
    52   1 H        0.925     0.053     2.280     2.361
    53   6 C        3.833     0.128    18.489     6.118
    54   8 O        1.637    -0.379    20.454     6.105
    55   6 C        3.755    -0.124    22.932     6.828
    56   1 H        0.925     0.054     2.274     2.358
    57   1 H        0.925     0.054     2.265     2.354
    58   1 H        0.925     0.047     2.355     2.400
    59   6 C        3.755    -0.123    22.906     6.824
    60   1 H        0.925     0.045     2.378     2.411
    61   1 H        0.925     0.051     2.312     2.378
    62   1 H        0.925     0.051     2.306     2.375
    63   5 B        2.625     0.402    16.054     6.774
    64   8 O        1.638    -0.380    20.475     6.108
    65   6 C        3.833     0.125    18.523     6.123
    66   6 C        3.755    -0.130    23.046     6.845
    67   1 H        0.925     0.057     2.234     2.337
    68   1 H        0.925     0.054     2.266     2.354
    69   1 H        0.925     0.049     2.334     2.389
    70   6 C        3.755    -0.129    23.032     6.843
    71   1 H        0.925     0.061     2.192     2.315
    72   1 H        0.925     0.050     2.326     2.385
    73   1 H        0.925     0.052     2.292     2.368
    74   6 C        3.829     0.128    18.486     6.118
    75   8 O        1.637    -0.384    20.550     6.119
    76   6 C        3.755    -0.123    22.910     6.825
    77   1 H        0.925     0.050     2.323     2.384
    78   1 H        0.925     0.053     2.283     2.363
    79   1 H        0.925     0.054     2.276     2.359
    80   6 C        3.755    -0.121    22.866     6.818
    81   1 H        0.925     0.040     2.449     2.447
    82   1 H        0.925     0.047     2.357     2.401
    83   1 H        0.925     0.054     2.272     2.357
    84   1 H        0.926     0.051     2.313     2.378
    85   1 H        0.926     0.048     2.339     2.392
    86   6 C        2.932    -0.023    28.575     8.767
    87   7 N        2.860    -0.001    21.278     6.851
    88   6 C        3.069    -0.078    29.884     8.964
    89   6 C        3.691    -0.054    21.733     6.671
    90   6 C        3.046    -0.039    28.930     8.822
    91   6 C        3.035    -0.075    29.847     8.961
    92   1 H        0.926     0.012     2.863     2.646
    93   1 H        0.924     0.063     2.160     2.298
    94   1 H        0.925     0.067     2.122     2.278
    95   1 H        0.924     0.044     2.400     2.423
    96   1 H        0.926     0.020     2.739     2.588
    97   1 H        0.926     0.009     2.898     2.662

 Mol. C6AA /au·bohr⁶  :      97910.562477
 Mol. C8AA /au·bohr⁸  :    2599590.920826
 Mol. α(0) /au        :        484.388015


Wiberg/Mayer (AO) data.
largest (>0.10) Wiberg bond orders for each atom

 ---------------------------------------------------------------------------
     #   Z sym  total        # sym  WBO       # sym  WBO       # sym  WBO
 ---------------------------------------------------------------------------
     1   7 N    3.388 --     6 C    1.385     2 C    1.302    19 Ir   0.438
     2   6 C    3.978 --     3 C    1.351     1 N    1.302    10 C    1.093
     3   6 C    3.988 --     4 C    1.482     2 C    1.351     9 H    0.962
                             6 C    0.105
     4   6 C    3.984 --     3 C    1.482     5 C    1.380    84 H    0.969
     5   6 C    3.980 --     6 C    1.462     4 C    1.380     8 H    0.969
     6   6 C    3.978 --     5 C    1.462     1 N    1.385     7 H    0.957
                             3 C    0.105
     7   1 H    0.997 --     6 C    0.957
     8   1 H    0.996 --     5 C    0.969
     9   1 H    0.998 --     3 C    0.962
    10   6 C    3.979 --    15 C    1.354    11 N    1.299     2 C    1.093
    11   7 N    3.411 --    12 C    1.386    10 C    1.299    19 Ir   0.449
    12   6 C    3.974 --    13 C    1.457    11 N    1.386    18 H    0.950
                            15 C    0.104
    13   6 C    3.982 --    12 C    1.457    14 C    1.384    17 H    0.969
    14   6 C    3.982 --    15 C    1.477    13 C    1.384    85 H    0.969
    15   6 C    3.989 --    14 C    1.477    10 C    1.354    16 H    0.962
                            12 C    0.104
    16   1 H    0.997 --    15 C    0.962
    17   1 H    0.997 --    13 C    0.969
    18   1 H    0.994 --    12 C    0.950
    19  77 Ir   5.209 --    63 B    0.864    42 B    0.860    21 B    0.727
                            86 C    0.592    20 H    0.544    11 N    0.449
                             1 N    0.438
    20   1 H    0.989 --    19 Ir   0.544    86 C    0.342
    21   5 B    3.265 --    33 O    1.109    22 O    1.087    19 Ir   0.727
    22   8 O    2.188 --    21 B    1.087    23 C    0.944
    23   6 C    3.944 --    24 C    0.996    28 C    0.990    22 O    0.944
                            32 C    0.941
    24   6 C    3.994 --    23 C    0.996    26 H    0.984    27 H    0.983
                            25 H    0.983
    25   1 H    0.997 --    24 C    0.983
    26   1 H    0.997 --    24 C    0.984
    27   1 H    0.997 --    24 C    0.983
    28   6 C    3.997 --    23 C    0.990    31 H    0.985    29 H    0.984
                            30 H    0.984
    29   1 H    0.997 --    28 C    0.984
    30   1 H    0.998 --    28 C    0.984
    31   1 H    0.999 --    28 C    0.985
    32   6 C    3.941 --    38 C    0.997    34 C    0.991    23 C    0.941
                            33 O    0.941
    33   8 O    2.198 --    21 B    1.109    32 C    0.941
    34   6 C    3.994 --    32 C    0.991    36 H    0.984    37 H    0.982
                            35 H    0.981
    35   1 H    0.997 --    34 C    0.981
    36   1 H    0.997 --    34 C    0.984
    37   1 H    0.997 --    34 C    0.982
    38   6 C    3.994 --    32 C    0.997    41 H    0.984    39 H    0.983
                            40 H    0.983
    39   1 H    0.998 --    38 C    0.983
    40   1 H    0.997 --    38 C    0.983
    41   1 H    0.997 --    38 C    0.984
    42   5 B    3.333 --    54 O    1.114    43 O    1.111    19 Ir   0.860
    43   8 O    2.219 --    42 B    1.111    44 C    0.937
    44   6 C    3.937 --    45 C    0.997    49 C    0.991    53 C    0.939
                            43 O    0.937
    45   6 C    3.993 --    44 C    0.997    48 H    0.983    46 H    0.982
                            47 H    0.982
    46   1 H    0.997 --    45 C    0.982
    47   1 H    0.997 --    45 C    0.982
    48   1 H    0.996 --    45 C    0.983
    49   6 C    3.994 --    44 C    0.991    50 H    0.984    51 H    0.982
                            52 H    0.979
    50   1 H    0.997 --    49 C    0.984
    51   1 H    0.998 --    49 C    0.982
    52   1 H    0.997 --    49 C    0.979
    53   6 C    3.938 --    55 C    0.996    59 C    0.992    44 C    0.939
                            54 O    0.936
    54   8 O    2.230 --    42 B    1.114    53 C    0.936
    55   6 C    3.993 --    53 C    0.996    58 H    0.983    57 H    0.983
                            56 H    0.982
    56   1 H    0.997 --    55 C    0.982
    57   1 H    0.997 --    55 C    0.983
    58   1 H    0.996 --    55 C    0.983
    59   6 C    3.994 --    53 C    0.992    61 H    0.983    62 H    0.983
                            60 H    0.982
    60   1 H    0.998 --    59 C    0.982
    61   1 H    0.996 --    59 C    0.983
    62   1 H    0.997 --    59 C    0.983
    63   5 B    3.355 --    75 O    1.113    64 O    1.106    19 Ir   0.864
    64   8 O    2.225 --    63 B    1.106    65 C    0.939
    65   6 C    3.938 --    70 C    0.996    66 C    0.991    64 O    0.939
                            74 C    0.938
    66   6 C    3.992 --    65 C    0.991    69 H    0.983    68 H    0.983
                            67 H    0.979
    67   1 H    0.997 --    66 C    0.979
    68   1 H    0.997 --    66 C    0.983
    69   1 H    0.997 --    66 C    0.983
    70   6 C    3.992 --    65 C    0.996    72 H    0.984    73 H    0.982
                            71 H    0.982
    71   1 H    0.996 --    70 C    0.982
    72   1 H    0.996 --    70 C    0.984
    73   1 H    0.997 --    70 C    0.982
    74   6 C    3.936 --    76 C    0.996    80 C    0.991    65 C    0.938
                            75 O    0.937
    75   8 O    2.228 --    63 B    1.113    74 C    0.937
    76   6 C    3.993 --    74 C    0.996    77 H    0.983    78 H    0.982
                            79 H    0.981
    77   1 H    0.996 --    76 C    0.983
    78   1 H    0.997 --    76 C    0.982
    79   1 H    0.997 --    76 C    0.981
    80   6 C    3.995 --    74 C    0.991    81 H    0.984    83 H    0.983
                            82 H    0.983
    81   1 H    0.998 --    80 C    0.984
    82   1 H    0.997 --    80 C    0.983
    83   1 H    0.996 --    80 C    0.983
    84   1 H    0.997 --     4 C    0.969
    85   1 H    0.997 --    14 C    0.969
    86   6 C    3.909 --    88 C    1.475    87 N    1.209    19 Ir   0.592
                            20 H    0.342    90 C    0.119
    87   7 N    3.626 --    90 C    1.209    86 C    1.209    89 C    1.008
    88   6 C    3.972 --    86 C    1.475    91 C    1.335    92 H    0.967
    89   6 C    3.975 --    87 N    1.008    93 H    0.978    95 H    0.973
                            94 H    0.970
    90   6 C    3.931 --    91 C    1.533    87 N    1.209    96 H    0.970
                            86 C    0.119
    91   6 C    3.974 --    90 C    1.533    88 C    1.335    97 H    0.974
    92   1 H    1.000 --    88 C    0.967
    93   1 H    0.996 --    89 C    0.978
    94   1 H    0.995 --    89 C    0.970
    95   1 H    0.998 --    89 C    0.973
    96   1 H    0.999 --    90 C    0.970
    97   1 H    0.998 --    91 C    0.974
 ---------------------------------------------------------------------------

Topologies differ in total number of bonds
Writing topology from bond orders to xtbtopo.mol

molecular dipole:
                 x           y           z       tot (Debye)
 q only:       -0.586      -0.003      -1.217
   full:       -1.690       0.344      -1.793       6.324
molecular quadrupole (traceless):
                xx          xy          yy          xz          yz          zz
 q only:       14.678       5.317       2.579      -3.872      11.398     -17.258
  q+dip:       17.125       6.686       0.023      -4.412      15.688     -17.148
   full:       15.569       8.122       1.515      -6.479      12.952     -17.084


           -------------------------------------------------
          | TOTAL ENERGY             -137.733052418500 Eh   |
          | GRADIENT NORM               0.033933383337 Eh/α |
          | HOMO-LUMO GAP               0.846084840696 eV   |
           -------------------------------------------------

------------------------------------------------------------------------
 * finished run on 2021/10/08 at 07:10:12.622     
------------------------------------------------------------------------
 total:
 * wall-time:     0 d,  0 h,  0 min,  0.133 sec
 *  cpu-time:     0 d,  0 h,  0 min,  0.779 sec
 * ratio c/w:     5.832 speedup
 SCF:
 * wall-time:     0 d,  0 h,  0 min,  0.098 sec
 *  cpu-time:     0 d,  0 h,  0 min,  0.583 sec
 * ratio c/w:     5.973 speedup

