99
 energy: -144.448710416143 gnorm: 0.000165625026 xtb: 6.4.1 (1a32961)
N        -0.90705084506804   -2.02329085166958   -0.37008343775051
C        -2.15560547779519   -1.54823102246578   -0.54706372912658
C        -3.03110909572009   -2.14829186208190   -1.46193619765462
C        -2.61453596512178   -3.23265722091302   -2.20138423585931
C        -1.31795938142003   -3.70783371551674   -2.01369659836775
C        -0.51537700342782   -3.07089831521176   -1.09155669441665
H         0.49459220363318   -3.40958657745465   -0.90792560029866
H        -0.94910749968243   -4.55433314513169   -2.56980827568369
H        -4.03155567370448   -1.76988052329763   -1.59286136829048
C        -2.52177121961889   -0.39101293719767    0.25671032326449
N        -1.58538387198535    0.06233283237070    1.11939488687918
C        -1.87834987229628    1.11450176317372    1.88216878797765
C        -3.08506172476442    1.78082840671016    1.83164122991519
C        -4.05393281612731    1.33702207884699    0.93410033162876
C        -3.76519448560459    0.24458348160130    0.14583907841721
H        -4.50089618981536   -0.11163299108303   -0.55600077258040
H        -3.26807261254145    2.62552150181760    2.47596755020999
H        -1.09275859844935    1.42879866772047    2.55196477257752
Ir        0.42150000000003   -0.81650000000003    0.91330000000008
H         0.87259999999998   -2.23030000000002    1.54050000000003
B         0.42603067269475    0.60347720670160   -0.61321342602507
O        -0.17692721530079    0.30121788981893   -1.82074113734324
C        -0.25969574990032    1.47384679291089   -2.63670239544446
C         0.05152033743554    1.11275608694006   -4.08715563585012
H         0.98588968573702    0.56536695579714   -4.15303588861795
H         0.11025018194332    2.01298831926044   -4.69353857100951
H        -0.74206191111165    0.47864414098098   -4.47531053069034
C        -1.70438264724212    1.98560338338800   -2.54239307351415
H        -1.85596623934211    2.85276400832175   -3.17829063887239
H        -2.37558156637844    1.19007894338917   -2.86046332178096
H        -1.94618338093470    2.23838795001242   -1.51184781572571
C         0.77056437840431    2.43497211220618   -1.95759891638102
O         0.85150661927317    1.91297117606792   -0.62437305424380
C         2.17396620338459    2.31172201996994   -2.56360670039565
H         2.49242469098048    1.27335074106607   -2.51157097887605
H         2.19811355373693    2.66997445440327   -3.58876274692871
H         2.86479912011244    2.90139090310615   -1.96547799233832
C         0.35651485388399    3.90476912106884   -1.92114011047883
H        -0.54820070687232    4.04623716091936   -1.33801772960865
H         1.15077098265192    4.48701841106751   -1.46008258525590
H         0.19673626337405    4.27038878390267   -2.93237160445792
B         1.57439501010846    0.62914678860791    1.89078578849775
O         2.94199742363857    0.77425499000484    1.87496839154984
C         3.31535204287730    2.03304194558892    2.45060054613868
C         4.57024043577749    1.85890890647222    3.30487730733885
H         4.43676929053022    1.06590228812844    4.03324718502347
H         5.40547822676564    1.59289005846259    2.66193173880969
H         4.80575809705260    2.78815329802949    3.81667053041942
C         3.61781757502744    2.97377010031686    1.27767844618988
H         3.89285603645603    3.96660637681365    1.62094678096079
H         4.44181471976882    2.55700174472383    0.70266640714677
H         2.74704446034676    3.01924926548913    0.62862054254364
C         2.02976618637122    2.44542785096769    3.24633190237698
O         1.01199527029700    1.63354731664251    2.64793517992131
C         1.63908062443331    3.91713704341239    3.11688133051968
H         1.40621659968450    4.16176113680895    2.08590550614858
H         0.75414478570819    4.10394097896699    3.72028096588510
H         2.44540471560515    4.55262746477448    3.47297526578051
C         2.09206908054158    2.06970670572857    4.73242970310155
H         2.31174269169688    1.01072430024591    4.84100083961945
H         2.83972238456092    2.65815968411140    5.25521204034287
H         1.11929624519861    2.25642476029170    5.18136362080628
B         2.27820000000003   -1.33090000000132    0.17409999999945
O         3.11773317346708   -2.28187713138422    0.71859792139109
C         4.39344380533757   -2.25925968992830    0.06716006232527
C         5.35082674882312   -1.51335273739844    1.00348151915523
H         4.93250422590592   -0.53658295713986    1.23000418403501
H         5.42757876952112   -2.07174405420400    1.93344893885993
H         6.34068092551394   -1.41600760023717    0.56852416267446
C         4.89056820820652   -3.69190666557709   -0.12702875429944
H         5.04487441713873   -4.14343302140163    0.84948154964397
H         5.83252075655687   -3.69100139215799   -0.66832160759700
H         4.16444652601046   -4.29341403853211   -0.66344818425925
C         4.09277687477043   -1.47364244564670   -1.25789144575434
O         2.85020627142216   -0.81605956596265   -0.96707404920856
C         5.13978816591754   -0.42521473259191   -1.63097465021684
H         6.11450427285224   -0.89011212509910   -1.75040397957370
H         4.85720152184082    0.04285689749269   -2.57062840405572
H         5.18961751880816    0.34621861850873   -0.87034418487129
C         3.84856565972483   -2.39010127700341   -2.46456932347748
H         3.07428338075197   -3.11669074293141   -2.23431676454542
H         3.50002812454897   -1.78295496937242   -3.29662085313014
H         4.76005108224085   -2.90213618591954   -2.75770162099015
H        -3.27886095616710   -3.70275767606577   -2.91048515041930
H        -5.00827965316677    1.83565061182038    0.85607106597530
C         0.23590000000049   -1.68139999999883    2.96030000000068
C        -0.99067925382032   -1.91849144210611    3.51666111945765
C         1.15972032900575   -1.70326813408415    4.05051182407403
N        -0.89859341046310   -2.03581373358794    4.88895928123743
H        -1.95036180920936   -2.01494160175097    3.04520054604214
C         2.53998299639904   -1.59969624703009    4.17939850579910
C         0.40429705220487   -1.90873716895801    5.24143299530196
H        -1.66091240228169   -2.18824317520563    5.52727504246842
C         3.06359040801982   -1.68186336950794    5.45875737953937
H         3.15276681841015   -1.45935824699228    3.30244750113560
N         0.90046775546717   -1.98195743804670    6.47044338423123
C         2.21587177906476   -1.86258259919208    6.55305893113445
H         4.12761656924179   -1.60791371854730    5.62732889753732
H         2.61733046166615   -1.92132095331484    7.55664222284776
