      -----------------------------------------------------------      
     |                   =====================                   |     
     |                           x T B                           |     
     |                   =====================                   |     
     |                         S. Grimme                         |     
     |          Mulliken Center for Theoretical Chemistry        |     
     |                    University of Bonn                     |     
      -----------------------------------------------------------      

   * xtb version 6.4.1 (1a32961) compiled by 'knkr256@seskscpg007.prim.scp' on 2021-10-19

   xtb is free software: you can redistribute it and/or modify it under
   the terms of the GNU Lesser General Public License as published by
   the Free Software Foundation, either version 3 of the License, or
   (at your option) any later version.
   
   xtb is distributed in the hope that it will be useful,
   but WITHOUT ANY WARRANTY; without even the implied warranty of
   MERCHANTABILITY or FITNESS FOR A PARTICULAR PURPOSE.  See the
   GNU Lesser General Public License for more details.
   
   Cite this work as:
   * C. Bannwarth, E. Caldeweyher, S. Ehlert, A. Hansen, P. Pracht,
     J. Seibert, S. Spicher, S. Grimme, WIREs Comput. Mol. Sci., 2020, 11,
     e01493. DOI: 10.1002/wcms.1493
   
   for GFN2-xTB:
   * C. Bannwarth, S. Ehlert and S. Grimme., J. Chem. Theory Comput., 2019,
     15, 1652-1671. DOI: 10.1021/acs.jctc.8b01176
   for GFN1-xTB:
   * S. Grimme, C. Bannwarth, P. Shushkov, J. Chem. Theory Comput., 2017,
     13, 1989-2009. DOI: 10.1021/acs.jctc.7b00118
   for GFN0-xTB:
   * P. Pracht, E. Caldeweyher, S. Ehlert, S. Grimme, ChemRxiv, 2019, preprint.
     DOI: 10.26434/chemrxiv.8326202.v1
   for GFN-FF:
   * S. Spicher and S. Grimme, Angew. Chem. Int. Ed., 2020, 59, 15665-15673.
     DOI: 10.1002/anie.202004239
   
   for ALPB and GBSA implicit solvation:
   * S. Ehlert, M. Stahn, S. Spicher, S. Grimme, J. Chem. Theory Comput.,
     2021, 17, 4250-4261. DOI: 10.1021/acs.jctc.1c00471
   
   for DFT-D4:
   * E. Caldeweyher, C. Bannwarth and S. Grimme, J. Chem. Phys., 2017,
     147, 034112. DOI: 10.1063/1.4993215
   * E. Caldeweyher, S. Ehlert, A. Hansen, H. Neugebauer, S. Spicher,
     C. Bannwarth and S. Grimme, J. Chem. Phys., 2019, 150, 154122.
     DOI: 10.1063/1.5090222
   * E. Caldeweyher, J.-M. Mewes, S. Ehlert and S. Grimme, Phys. Chem. Chem. Phys.
     2020, 22, 8499-8512. DOI: 10.1039/D0CP00502A
   
   for sTDA-xTB:
   * S. Grimme and C. Bannwarth, J. Chem. Phys., 2016, 145, 054103.
     DOI: 10.1063/1.4959605
   
   in the mass-spec context:
   * V. Asgeirsson, C. Bauer and S. Grimme, Chem. Sci., 2017, 8, 4879.
     DOI: 10.1039/c7sc00601b
   * J. Koopman and S. Grimme, ACS Omega 2019, 4, 12, 15120-15133.
     DOI: 10.1021/acsomega.9b02011
   
   for metadynamics refer to:
   * S. Grimme, J. Chem. Theory Comput., 2019, 155, 2847-2862
     DOI: 10.1021/acs.jctc.9b00143
   
   for SPH calculations refer to:
   * S. Spicher and S. Grimme, J. Chem. Theory Comput., 2021, 17, 1701-1714
     DOI: 10.1021/acs.jctc.0c01306
   
   with help from (in alphabetical order)
   P. Atkinson, C. Bannwarth, F. Bohle, G. Brandenburg, E. Caldeweyher
   M. Checinski, S. Dohm, S. Ehlert, S. Ehrlich, I. Gerasimov, J. Koopman
   C. Lavigne, S. Lehtola, F. März, M. Müller, F. Musil, H. Neugebauer
   J. Pisarek, C. Plett, P. Pracht, J. Seibert, P. Shushkov, S. Spicher
   M. Stahn, M. Steiner, T. Strunk, J. Stückrath, T. Rose, and J. Unsleber
   
 * started run on 2022/01/14 at 13:19:43.828     

           -------------------------------------------------
          |                Calculation Setup                |
           -------------------------------------------------

          program call               : xtb xtbopt.xyz --sp --alpb thf -P 6
          hostname                   : seskscpg007.prim.scp
          coordinate file            : xtbopt.xyz
          omp threads                :                     6
          number of atoms            :                    99
          number of electrons        :                   264
          charge                     :                     0
          spin                       :                   0.0
          first test random number   :      0.06235510450796

   ID    Z sym.   atoms
    1    7 N      1, 11, 88, 94
    2    6 C      2-6, 10, 12-15, 23, 24, 28, 32, 34, 38, 44, 45, 49, 53, 55,
                  59, 65, 66, 70, 74, 76, 80, 86, 87, 89, 91, 92, 95, 96
    3    1 H      7-9, 16-18, 20, 25-27, 29-31, 35-37, 39-41, 46-48, 50-52,
                  56-58, 60-62, 67-69, 71-73, 77-79, 81-85, 90, 93, 97-99
    4   77 Ir     19
    5    5 B      21, 42, 63
    6    8 O      22, 33, 43, 54, 64, 75

molecular fragmentation (1/2 indicates fragments):
111111111111111111111111111111111111111111111111111111111111111111111111
111111111111122222222222222
# atoms in fragment 1/2:    85    14
 fragment masses (1/2) :      730.32      117.13
CMA distance (Bohr)    :   9.924
constraining FC (au)   :  0.0500

           -------------------------------------------------
          |                 G F N 2 - x T B                 |
           -------------------------------------------------

        Reference                      10.1021/acs.jctc.8b01176
      * Hamiltonian:
        H0-scaling (s, p, d)           1.850000    2.230000    2.230000
        zeta-weighting                 0.500000
      * Dispersion:
        s8                             2.700000
        a1                             0.520000
        a2                             5.000000
        s9                             5.000000
      * Repulsion:
        kExp                           1.500000    1.000000
        rExp                           1.000000
      * Coulomb:
        alpha                          2.000000
        third order                    shell-resolved
        anisotropic                    true
        a3                             3.000000
        a5                             4.000000
        cn-shift                       1.200000
        cn-exp                         4.000000
        max-rad                        5.000000

      * Solvation model:               ALPB
        Solvent                        thf
        Parameter file                 internal GFN2-xTB/ALPB
        Dielectric constant                7.6000E+00
        Reference state                gsolv [1 M gas/solution]
        Free energy shift                  5.3248E-03 Eh       3.3414E+00 kcal/mol
        Temperature                        2.9815E+02 K
        Density                            8.8300E-01 kg/L
        Solvent mass                       7.2106E+01 g/mol
        Interaction kernel             P16
        Born radius scaling (c1)           1.7311E+00
        Born radii integrator          GBOBC
        Born offset                        0.0000E+00 a0       0.0000E+00 AA
        H-bond correction              true
        Ion screening                  false
        Surface tension                    1.0000E-05 Eh       1.5569E+01 dyn/cm
        Grid points                               230 per atom
q/qsh data taken from xtbrestart
CAMM data taken from xtbrestart

          ...................................................
          :                      SETUP                      :
          :.................................................:
          :  # basis functions                 252          :
          :  # atomic orbitals                 251          :
          :  # shells                          149          :
          :  # electrons                       264          :
          :  max. iterations                   250          :
          :  Hamiltonian                  GFN2-xTB          :
          :  restarted?                       true          :
          :  GBSA solvation                   true          :
          :  PC potential                    false          :
          :  electronic temp.          300.0000000     K    :
          :  accuracy                    1.0000000          :
          :  -> integral cutoff          0.2500000E+02      :
          :  -> integral neglect         0.1000000E-07      :
          :  -> SCF convergence          0.1000000E-05 Eh   :
          :  -> wf. convergence          0.1000000E-03 e    :
          :  Broyden damping             0.4000000          :
          ...................................................

 iter      E             dE          RMSdq      gap      omega  full diag
   1   -146.3249771 -0.146325E+03  0.226E-05    0.87       0.0  T
   2   -146.3249771  0.922000E-10  0.349E-05    0.87     287.8  T
   3   -146.3249771 -0.103370E-09  0.155E-05    0.87     648.8  T

   *** convergence criteria satisfied after 3 iterations ***

         #    Occupation            Energy/Eh            Energy/eV
      -------------------------------------------------------------
         1        2.0000           -0.6727653             -18.3069
       ...           ...                  ...                  ...
       126        2.0000           -0.3546210              -9.6497
       127        2.0000           -0.3415641              -9.2944
       128        2.0000           -0.3284541              -8.9377
       129        2.0000           -0.3186379              -8.6706
       130        2.0000           -0.3134155              -8.5285
       131        2.0000           -0.3083268              -8.3900
       132        2.0000           -0.3057576              -8.3201 (HOMO)
       133        0.0000           -0.2738698              -7.4524 (LUMO)
       134                         -0.2462457              -6.7007
       135                         -0.2434486              -6.6246
       136                         -0.2335209              -6.3544
       137                         -0.2028194              -5.5190
       ...                                ...                  ...
       251                          3.7436349             101.8695
      -------------------------------------------------------------
                  HL-Gap            0.0318878 Eh            0.8677 eV
             Fermi-level           -0.2897828 Eh           -7.8854 eV

 SCC (total)                   0 d,  0 h,  0 min,  0.087 sec
 SCC setup                      ...        0 min,  0.002 sec (  2.730%)
 Dispersion                     ...        0 min,  0.003 sec (  3.254%)
 classical contributions        ...        0 min,  0.000 sec (  0.176%)
 integral evaluation            ...        0 min,  0.011 sec ( 12.767%)
 iterations                     ...        0 min,  0.037 sec ( 42.396%)
 molecular gradient             ...        0 min,  0.033 sec ( 37.758%)
 printout                       ...        0 min,  0.001 sec (  0.836%)

         :::::::::::::::::::::::::::::::::::::::::::::::::::::
         ::                     SUMMARY                     ::
         :::::::::::::::::::::::::::::::::::::::::::::::::::::
         :: total energy            -144.445217066246 Eh    ::
         :: total w/o Gsasa/hb      -144.403268821498 Eh    ::
         :: gradient norm              0.035311162216 Eh/a0 ::
         :: HOMO-LUMO gap              0.867711254338 eV    ::
         ::.................................................::
         :: SCC energy              -146.324977087485 Eh    ::
         :: -> isotropic ES            0.249496781859 Eh    ::
         :: -> anisotropic ES          0.016648812539 Eh    ::
         :: -> anisotropic XC          0.051529747021 Eh    ::
         :: -> dispersion             -0.138031435008 Eh    ::
         :: -> Gsolv                  -0.053835784029 Eh    ::
         ::    -> Gelec               -0.011887539281 Eh    ::
         ::    -> Gsasa               -0.043705847514 Eh    ::
         ::    -> Ghb                 -0.003567212678 Eh    ::
         ::    -> Gshift               0.005324815444 Eh    ::
         :: repulsion energy           1.871960906742 Eh    ::
         :: add. restraining           0.000000000000 Eh    ::
         :: total charge               0.000000000002 e     ::
         :::::::::::::::::::::::::::::::::::::::::::::::::::::

           -------------------------------------------------
          |                Property Printout                |
           -------------------------------------------------

    * Orbital Energies and Occupations

         #    Occupation            Energy/Eh            Energy/eV
      -------------------------------------------------------------
         1        2.0000           -0.6727653             -18.3069
       ...           ...                  ...                  ...
       120        2.0000           -0.3862415             -10.5102
       121        2.0000           -0.3846420             -10.4666
       122        2.0000           -0.3797921             -10.3347
       123        2.0000           -0.3784294             -10.2976
       124        2.0000           -0.3771109             -10.2617
       125        2.0000           -0.3674739              -9.9995
       126        2.0000           -0.3546210              -9.6497
       127        2.0000           -0.3415641              -9.2944
       128        2.0000           -0.3284541              -8.9377
       129        2.0000           -0.3186379              -8.6706
       130        2.0000           -0.3134155              -8.5285
       131        2.0000           -0.3083268              -8.3900
       132        2.0000           -0.3057576              -8.3201 (HOMO)
       133        0.0000           -0.2738698              -7.4524 (LUMO)
       134                         -0.2462457              -6.7007
       135                         -0.2434486              -6.6246
       136                         -0.2335209              -6.3544
       137                         -0.2028194              -5.5190
       138                         -0.1977135              -5.3801
       139                         -0.1809950              -4.9251
       140                         -0.1534399              -4.1753
       141                         -0.1459618              -3.9718
       142                         -0.1248230              -3.3966
       143                         -0.1190514              -3.2396
       ...                                ...                  ...
       251                          3.7436349             101.8695
      -------------------------------------------------------------
                  HL-Gap            0.0318878 Eh            0.8677 eV
             Fermi-level           -0.2897828 Eh           -7.8854 eV

     #   Z          covCN         q      C6AA      α(0)
     1   7 N        2.543    -0.127    23.792     7.244
     2   6 C        2.953     0.074    26.345     8.419
     3   6 C        2.918    -0.045    29.110     8.848
     4   6 C        2.923    -0.023    28.583     8.767
     5   6 C        2.915    -0.045    29.129     8.850
     6   6 C        2.891     0.049    26.910     8.505
     7   1 H        0.926     0.052     2.294     2.369
     8   1 H        0.926     0.054     2.275     2.359
     9   1 H        0.926     0.045     2.387     2.416
    10   6 C        2.953     0.069    26.447     8.435
    11   7 N        2.556    -0.133    23.908     7.262
    12   6 C        2.889     0.041    27.074     8.531
    13   6 C        2.915    -0.046    29.146     8.853
    14   6 C        2.922    -0.027    28.677     8.782
    15   6 C        2.918    -0.046    29.137     8.852
    16   1 H        0.926     0.043     2.406     2.426
    17   1 H        0.926     0.049     2.333     2.389
    18   1 H        0.926     0.074     2.040     2.234
    19  77 Ir       5.937    -0.156   388.158    36.433
    20   1 H        0.977     0.082     1.951     2.183
    21   5 B        2.631     0.405    15.994     6.756
    22   8 O        1.638    -0.406    20.972     6.182
    23   6 C        3.835     0.130    18.455     6.112
    24   6 C        3.755    -0.121    22.883     6.821
    25   1 H        0.925     0.054     2.276     2.359
    26   1 H        0.925     0.045     2.388     2.416
    27   1 H        0.925     0.052     2.300     2.372
    28   6 C        3.754    -0.109    22.639     6.784
    29   1 H        0.925     0.047     2.354     2.399
    30   1 H        0.925     0.042     2.426     2.436
    31   1 H        0.925     0.027     2.632     2.537
    32   6 C        3.842     0.131    18.435     6.108
    33   8 O        1.637    -0.406    20.980     6.183
    34   6 C        3.755    -0.121    22.882     6.821
    35   1 H        0.925     0.051     2.302     2.373
    36   1 H        0.925     0.046     2.371     2.408
    37   1 H        0.925     0.050     2.317     2.381
    38   6 C        3.754    -0.120    22.858     6.817
    39   1 H        0.925     0.046     2.373     2.409
    40   1 H        0.925     0.054     2.270     2.356
    41   1 H        0.925     0.045     2.379     2.412
    42   5 B        2.632     0.408    15.956     6.747
    43   8 O        1.637    -0.378    20.440     6.103
    44   6 C        3.840     0.128    18.476     6.115
    45   6 C        3.755    -0.127    22.996     6.838
    46   1 H        0.925     0.058     2.219     2.330
    47   1 H        0.925     0.056     2.252     2.347
    48   1 H        0.925     0.050     2.323     2.383
    49   6 C        3.755    -0.122    22.889     6.822
    50   1 H        0.925     0.049     2.335     2.390
    51   1 H        0.925     0.047     2.353     2.399
    52   1 H        0.925     0.051     2.313     2.378
    53   6 C        3.838     0.128    18.479     6.115
    54   8 O        1.637    -0.384    20.543     6.118
    55   6 C        3.754    -0.125    22.952     6.831
    56   1 H        0.925     0.054     2.276     2.359
    57   1 H        0.925     0.054     2.265     2.354
    58   1 H        0.925     0.049     2.335     2.390
    59   6 C        3.755    -0.125    22.962     6.833
    60   1 H        0.925     0.052     2.299     2.371
    61   1 H        0.925     0.052     2.291     2.367
    62   1 H        0.925     0.047     2.352     2.398
    63   5 B        2.627     0.404    16.022     6.765
    64   8 O        1.637    -0.376    20.392     6.095
    65   6 C        3.834     0.125    18.532     6.125
    66   6 C        3.755    -0.133    23.109     6.854
    67   1 H        0.925     0.061     2.185     2.311
    68   1 H        0.925     0.056     2.252     2.347
    69   1 H        0.925     0.051     2.307     2.375
    70   6 C        3.755    -0.129    23.032     6.843
    71   1 H        0.925     0.061     2.192     2.316
    72   1 H        0.925     0.051     2.310     2.377
    73   1 H        0.925     0.051     2.305     2.374
    74   6 C        3.828     0.127    18.505     6.121
    75   8 O        1.637    -0.378    20.434     6.102
    76   6 C        3.755    -0.125    22.946     6.830
    77   1 H        0.925     0.051     2.309     2.376
    78   1 H        0.925     0.053     2.289     2.366
    79   1 H        0.925     0.057     2.234     2.338
    80   6 C        3.755    -0.122    22.893     6.822
    81   1 H        0.925     0.041     2.441     2.443
    82   1 H        0.925     0.049     2.335     2.390
    83   1 H        0.925     0.054     2.266     2.354
    84   1 H        0.926     0.051     2.313     2.378
    85   1 H        0.926     0.046     2.364     2.404
    86   6 C        2.831     0.061    26.634     8.457
    87   6 C        2.921    -0.051    29.268     8.872
    88   7 N        1.834    -0.270    27.869     7.823
    89   6 C        2.916    -0.032    28.802     8.800
    90   1 H        0.926     0.020     2.730     2.584
    91   6 C        3.094     0.128    25.100     8.211
    92   6 C        3.118    -0.034    28.684     8.772
    93   1 H        0.925     0.025     2.665     2.553
    94   7 N        2.779    -0.118    23.559     7.209
    95   6 C        3.006    -0.079    29.964     8.979
    96   6 C        3.041    -0.004    28.082     8.692
    97   1 H        0.860     0.205     1.082     1.629
    98   1 H        0.926     0.031     2.578     2.511
    99   1 H        0.926     0.050     2.325     2.385

 Mol. C6AA /au·bohr⁶  :     106940.534678
 Mol. C8AA /au·bohr⁸  :    2850770.202724
 Mol. α(0) /au        :        507.766502


Wiberg/Mayer (AO) data.
largest (>0.10) Wiberg bond orders for each atom

 ---------------------------------------------------------------------------
     #   Z sym  total        # sym  WBO       # sym  WBO       # sym  WBO
 ---------------------------------------------------------------------------
     1   7 N    3.399 --     6 C    1.389     2 C    1.307    19 Ir   0.441
     2   6 C    3.978 --     3 C    1.343     1 N    1.307    10 C    1.099
     3   6 C    3.987 --     4 C    1.489     2 C    1.343     9 H    0.962
                             6 C    0.106
     4   6 C    3.985 --     3 C    1.489     5 C    1.376    84 H    0.969
     5   6 C    3.977 --     6 C    1.463     4 C    1.376     8 H    0.969
     6   6 C    3.978 --     5 C    1.463     1 N    1.389     7 H    0.957
                             3 C    0.106
     7   1 H    0.997 --     6 C    0.957
     8   1 H    0.996 --     5 C    0.969
     9   1 H    0.998 --     3 C    0.962
    10   6 C    3.978 --    15 C    1.349    11 N    1.293     2 C    1.099
    11   7 N    3.398 --    12 C    1.376    10 C    1.293    19 Ir   0.436
    12   6 C    3.973 --    13 C    1.466    11 N    1.376    18 H    0.948
                            15 C    0.105
    13   6 C    3.982 --    12 C    1.466    14 C    1.375    17 H    0.969
    14   6 C    3.980 --    15 C    1.482    13 C    1.375    85 H    0.969
    15   6 C    3.989 --    14 C    1.482    10 C    1.349    16 H    0.962
                            12 C    0.105
    16   1 H    0.998 --    15 C    0.962
    17   1 H    0.997 --    13 C    0.969
    18   1 H    0.994 --    12 C    0.948
    19  77 Ir   5.185 --    63 B    0.867    42 B    0.856    21 B    0.715
                            86 C    0.591    20 H    0.523     1 N    0.441
                            11 N    0.436
    20   1 H    0.990 --    19 Ir   0.523    86 C    0.345
    21   5 B    3.275 --    33 O    1.106    22 O    1.095    19 Ir   0.715
    22   8 O    2.195 --    21 B    1.095    23 C    0.942
    23   6 C    3.943 --    24 C    0.996    28 C    0.990    22 O    0.942
                            32 C    0.941
    24   6 C    3.994 --    23 C    0.996    26 H    0.984    27 H    0.983
                            25 H    0.983
    25   1 H    0.997 --    24 C    0.983
    26   1 H    0.997 --    24 C    0.984
    27   1 H    0.997 --    24 C    0.983
    28   6 C    3.997 --    23 C    0.990    31 H    0.985    30 H    0.984
                            29 H    0.984
    29   1 H    0.997 --    28 C    0.984
    30   1 H    0.998 --    28 C    0.984
    31   1 H    0.999 --    28 C    0.985
    32   6 C    3.940 --    38 C    0.997    34 C    0.991    23 C    0.941
                            33 O    0.939
    33   8 O    2.196 --    21 B    1.106    32 C    0.939
    34   6 C    3.994 --    32 C    0.991    36 H    0.984    37 H    0.982
                            35 H    0.982
    35   1 H    0.997 --    34 C    0.982
    36   1 H    0.997 --    34 C    0.984
    37   1 H    0.997 --    34 C    0.982
    38   6 C    3.994 --    32 C    0.997    41 H    0.984    39 H    0.983
                            40 H    0.983
    39   1 H    0.998 --    38 C    0.983
    40   1 H    0.997 --    38 C    0.983
    41   1 H    0.997 --    38 C    0.984
    42   5 B    3.338 --    43 O    1.125    54 O    1.104    19 Ir   0.856
    43   8 O    2.231 --    42 B    1.125    44 C    0.935
    44   6 C    3.937 --    45 C    0.997    49 C    0.991    53 C    0.940
                            43 O    0.935
    45   6 C    3.993 --    44 C    0.997    48 H    0.983    47 H    0.982
                            46 H    0.982
    46   1 H    0.996 --    45 C    0.982
    47   1 H    0.997 --    45 C    0.982
    48   1 H    0.996 --    45 C    0.983
    49   6 C    3.994 --    44 C    0.991    50 H    0.984    51 H    0.983
                            52 H    0.981
    50   1 H    0.997 --    49 C    0.984
    51   1 H    0.997 --    49 C    0.983
    52   1 H    0.997 --    49 C    0.981
    53   6 C    3.938 --    55 C    0.997    59 C    0.991    44 C    0.940
                            54 O    0.933
    54   8 O    2.223 --    42 B    1.104    53 C    0.933
    55   6 C    3.993 --    53 C    0.997    58 H    0.983    57 H    0.983
                            56 H    0.983
    56   1 H    0.997 --    55 C    0.983
    57   1 H    0.997 --    55 C    0.983
    58   1 H    0.996 --    55 C    0.983
    59   6 C    3.994 --    53 C    0.991    62 H    0.983    61 H    0.983
                            60 H    0.981
    60   1 H    0.997 --    59 C    0.981
    61   1 H    0.996 --    59 C    0.983
    62   1 H    0.997 --    59 C    0.983
    63   5 B    3.364 --    75 O    1.117    64 O    1.117    19 Ir   0.867
    64   8 O    2.229 --    63 B    1.117    65 C    0.937
    65   6 C    3.936 --    70 C    0.996    66 C    0.991    74 C    0.937
                            64 O    0.937
    66   6 C    3.992 --    65 C    0.991    69 H    0.983    68 H    0.982
                            67 H    0.979
    67   1 H    0.996 --    66 C    0.979
    68   1 H    0.997 --    66 C    0.982
    69   1 H    0.996 --    66 C    0.983
    70   6 C    3.992 --    65 C    0.996    72 H    0.983    73 H    0.982
                            71 H    0.982
    71   1 H    0.996 --    70 C    0.982
    72   1 H    0.996 --    70 C    0.983
    73   1 H    0.997 --    70 C    0.982
    74   6 C    3.935 --    76 C    0.995    80 C    0.991    65 C    0.937
                            75 O    0.937
    75   8 O    2.236 --    63 B    1.117    74 C    0.937
    76   6 C    3.992 --    74 C    0.995    77 H    0.983    78 H    0.982
                            79 H    0.982
    77   1 H    0.996 --    76 C    0.983
    78   1 H    0.997 --    76 C    0.982
    79   1 H    0.997 --    76 C    0.982
    80   6 C    3.995 --    74 C    0.991    81 H    0.984    83 H    0.983
                            82 H    0.983
    81   1 H    0.998 --    80 C    0.984
    82   1 H    0.997 --    80 C    0.983
    83   1 H    0.996 --    80 C    0.983
    84   1 H    0.997 --     4 C    0.969
    85   1 H    0.997 --    14 C    0.969
    86   6 C    3.937 --    88 N    1.431    87 C    1.306    19 Ir   0.591
                            20 H    0.345
    87   6 C    3.988 --    89 C    1.505    86 C    1.306    90 H    0.964
    88   7 N    3.085 --    86 C    1.431    91 C    1.331
    89   6 C    3.989 --    87 C    1.505    92 C    1.329    93 H    0.967
    90   1 H    0.999 --    87 C    0.964
    91   6 C    3.959 --    88 N    1.331    92 C    1.217    94 N    1.197
    92   6 C    3.981 --    89 C    1.329    95 C    1.230    91 C    1.217
    93   1 H    0.998 --    89 C    0.967
    94   7 N    3.547 --    91 C    1.197    96 C    1.195    97 H    0.929
    95   6 C    3.975 --    96 C    1.609    92 C    1.230    98 H    0.973
    96   6 C    3.937 --    95 C    1.609    94 N    1.195    99 H    0.969
    97   1 H    0.957 --    94 N    0.929
    98   1 H    0.999 --    95 C    0.973
    99   1 H    0.997 --    96 C    0.969
 ---------------------------------------------------------------------------

Topologies differ in total number of bonds
Writing topology from bond orders to xtbtopo.mol

molecular dipole:
                 x           y           z       tot (Debye)
 q only:        0.909       0.429      -0.152
   full:       -0.525       0.580      -0.551       2.432
molecular quadrupole (traceless):
                xx          xy          yy          xz          yz          zz
 q only:       10.205      -0.016     -10.957      15.307       9.775       0.752
  q+dip:       12.661       3.057     -13.144      15.172      13.112       0.483
   full:        9.611       3.293     -10.682      13.147      10.344       1.071


           -------------------------------------------------
          | TOTAL ENERGY             -144.445217066246 Eh   |
          | GRADIENT NORM               0.035311162216 Eh/α |
          | HOMO-LUMO GAP               0.867711254338 eV   |
           -------------------------------------------------

------------------------------------------------------------------------
 * finished run on 2022/01/14 at 13:19:43.945     
------------------------------------------------------------------------
 total:
 * wall-time:     0 d,  0 h,  0 min,  0.117 sec
 *  cpu-time:     0 d,  0 h,  0 min,  0.683 sec
 * ratio c/w:     5.821 speedup
 SCF:
 * wall-time:     0 d,  0 h,  0 min,  0.088 sec
 *  cpu-time:     0 d,  0 h,  0 min,  0.526 sec
 * ratio c/w:     5.950 speedup

