99
 energy: -144.428139156578 gnorm: 0.079096529008 xtb: 6.4.1 (1a32961)
N        -0.96510000000000   -2.11530000000000   -0.24090000000000
C        -2.24700000000000   -1.69840000000000   -0.36220000000000
C        -3.14040000000000   -2.36820000000000   -1.21200000000000
C        -2.70220000000000   -3.47560000000000   -1.93050000000000
C        -1.37780000000000   -3.89880000000000   -1.78760000000000
C        -0.54290000000000   -3.18670000000000   -0.93510000000000
H         0.49810000000000   -3.45630000000000   -0.78940000000000
H        -0.99570000000000   -4.76030000000000   -2.32770000000000
H        -4.16500000000000   -2.02890000000000   -1.31830000000000
C        -2.62130000000000   -0.50950000000000    0.44100000000000
N        -1.62600000000000    0.07330000000000    1.16020000000000
C        -1.89680000000000    1.15240000000000    1.91690000000000
C        -3.17230000000000    1.70330000000000    1.99650000000000
C        -4.20510000000000    1.11740000000000    1.26270000000000
C        -3.92610000000000    0.00250000000000    0.47820000000000
H        -4.71960000000000   -0.46420000000000   -0.09520000000000
H        -3.34630000000000    2.57510000000000    2.62070000000000
H        -1.04450000000000    1.57420000000000    2.43690000000000
Ir        0.42150000000000   -0.81650000000000    0.91330000000000
H         0.87260000000000   -2.23030000000000    1.54050000000000
B         0.50670000000000    0.41560000000000   -0.81540000000000
O         0.19500000000000   -0.04700000000000   -2.09150000000000
C         0.00650000000000    1.10040000000000   -2.95430000000000
C         0.49020000000000    0.74740000000000   -4.35780000000000
H         1.51610000000000    0.37380000000000   -4.33700000000000
H         0.44730000000000    1.62240000000000   -5.01670000000000
H        -0.14740000000000   -0.03390000000000   -4.78430000000000
C        -1.50120000000000    1.39560000000000   -2.96670000000000
H        -1.75370000000000    2.21460000000000   -3.64850000000000
H        -2.03200000000000    0.49450000000000   -3.28930000000000
H        -1.85170000000000    1.65210000000000   -1.96220000000000
C         0.84230000000000    2.20670000000000   -2.22040000000000
O         0.75200000000000    1.78260000000000   -0.83690000000000
C         2.32930000000000    2.18620000000000   -2.59900000000000
H         2.74130000000000    1.18500000000000   -2.45750000000000
H         2.48870000000000    2.51300000000000   -3.63180000000000
H         2.87200000000000    2.86270000000000   -1.93200000000000
C         0.28440000000000    3.62290000000000   -2.33660000000000
H        -0.72650000000000    3.69040000000000   -1.92910000000000
H         0.92130000000000    4.31480000000000   -1.77610000000000
H         0.26430000000000    3.94810000000000   -3.38320000000000
B         1.56300000000000    0.60960000000000    1.84840000000000
O         2.92780000000000    0.55230000000000    2.15020000000000
C         3.36330000000000    1.88660000000000    2.50260000000000
C         4.53140000000000    1.78590000000000    3.47740000000000
H         4.27910000000000    1.16090000000000    4.33690000000000
H         5.39390000000000    1.33790000000000    2.97340000000000
H         4.82390000000000    2.77870000000000    3.83820000000000
C         3.79700000000000    2.56850000000000    1.19670000000000
H         4.20020000000000    3.57090000000000    1.37680000000000
H         4.56740000000000    1.95560000000000    0.72110000000000
H         2.95240000000000    2.63260000000000    0.50540000000000
C         2.05040000000000    2.50090000000000    3.09320000000000
O         1.03750000000000    1.81620000000000    2.31910000000000
C         1.89100000000000    4.00450000000000    2.88650000000000
H         1.87290000000000    4.25440000000000    1.82410000000000
H         0.94940000000000    4.34260000000000    3.33170000000000
H         2.71080000000000    4.55150000000000    3.36630000000000
C         1.82470000000000    2.13200000000000    4.56520000000000
H         1.92610000000000    1.05330000000000    4.71320000000000
H         2.52610000000000    2.65280000000000    5.22540000000000
H         0.80630000000000    2.41580000000000    4.84900000000000
B         2.27820000000000   -1.33090000000000    0.17410000000000
O         2.89460000000000   -2.57740000000000    0.38450000000000
C         4.26930000000000   -2.48200000000000   -0.07210000000000
C         5.10900000000000   -2.05380000000000    1.14010000000000
H         4.76350000000000   -1.08740000000000    1.51750000000000
H         4.98050000000000   -2.79470000000000    1.93590000000000
H         6.17420000000000   -1.99290000000000    0.89300000000000
C         4.71950000000000   -3.84660000000000   -0.58470000000000
H         4.75280000000000   -4.56130000000000    0.24420000000000
H         5.72330000000000   -3.78370000000000   -1.02010000000000
H         4.03500000000000   -4.23600000000000   -1.34170000000000
C         4.16440000000000   -1.36220000000000   -1.16300000000000
O         3.08520000000000   -0.55030000000000   -0.65400000000000
C         5.40720000000000   -0.48870000000000   -1.31550000000000
H         6.27320000000000   -1.09010000000000   -1.61530000000000
H         5.23300000000000    0.26930000000000   -2.08590000000000
H         5.64270000000000    0.02650000000000   -0.38240000000000
C         3.71800000000000   -1.89830000000000   -2.53110000000000
H         2.82530000000000   -2.52160000000000   -2.42740000000000
H         3.46090000000000   -1.05250000000000   -3.17550000000000
H         4.50570000000000   -2.48290000000000   -3.01790000000000
H        -3.38500000000000   -4.00130000000000   -2.59310000000000
H        -5.21400000000000    1.52080000000000    1.29960000000000
C         0.23590000000000   -1.68140000000000    2.96030000000000
C        -1.01153233914572   -2.10654244342174    3.44128317131858
N         1.32490617935974   -1.74021211709709    3.73387748231747
C        -1.16157579333680   -2.59931317416829    4.72822355406123
H        -1.87949463075009   -2.06777570634428    2.79617506448543
C         1.18272198182177   -2.23479035979695    4.95848134540883
C        -0.01919709513262   -2.70444420575960    5.52660802148658
H        -2.12806026936994   -2.93071137181222    5.08708558539041
N         2.19121335021855   -2.46101354819306    5.84725167694018
C         0.31665963395085   -3.23993258008170    6.80113280362074
C         1.66680720163551   -3.08216395131818    6.94967568934457
H         3.16397099735341   -2.26841817721300    5.67510925900113
H        -0.35526408110215   -3.69605199994202    7.50653367231357
H         2.30224963908700   -3.37633015276798    7.76671848438352
99
 energy: -144.434815459167 gnorm: 0.049290375873 xtb: 6.4.1 (1a32961)
N        -0.96186529410095   -2.10031601536673   -0.25113882455051
C        -2.24095092123497   -1.69050188039249   -0.36399572426435
C        -3.13570122256263   -2.36310364155416   -1.20568099861516
C        -2.70513946471584   -3.46420504149164   -1.92123016852501
C        -1.38447369552652   -3.88282224758389   -1.78212748497414
C        -0.55436898764382   -3.16826198498690   -0.94084974928384
H         0.47952049563753   -3.44795051921696   -0.79116224918809
H        -1.00791232773212   -4.74271571823122   -2.31754046081910
H        -4.15623678910783   -2.02768147914889   -1.30983883573672
C        -2.61149180969738   -0.51329652774642    0.43427277374078
N        -1.61805840374885    0.06624428654581    1.14713440038771
C        -1.89698343714077    1.13848405360639    1.89376161650151
C        -3.16372055703880    1.68734082277293    1.98205012164287
C        -4.19593210301460    1.10293201321833    1.25549512053732
C        -3.91460932344634   -0.00292192427575    0.47474507841811
H        -4.70630824971720   -0.46663019303537   -0.09356016410102
H        -3.33880846990750    2.55015557116850    2.60940434681450
H        -1.05398158374017    1.55636027069595    2.42337138478031
Ir        0.42150000000000   -0.81650000000000    0.91330000000000
H         0.87260000000000   -2.23030000000000    1.54050000000000
B         0.49032657110296    0.42693176025924   -0.78907209668418
O         0.17544123588088   -0.03362573221810   -2.06132830232753
C         0.01029363866364    1.09712768575104   -2.94337149697087
C         0.48922701179436    0.74678296622785   -4.34818137392173
H         1.50820345335745    0.37014568197995   -4.32666011836807
H         0.44422018300939    1.62199984780772   -4.99699795945221
H        -0.14953481376905   -0.02941914750437   -4.76820859933537
C        -1.49397687553566    1.39899323493903   -2.96983205498963
H        -1.73285883727268    2.21171182901978   -3.65414557687707
H        -2.02378245083522    0.50153735498063   -3.28926486250116
H        -1.84060126208667    1.65377384820755   -1.96816481042850
C         0.83181524920316    2.20777982658208   -2.21322349273236
O         0.75482998002735    1.78270707344149   -0.83567094098296
C         2.31434035400966    2.19098871103144   -2.60047701215460
H         2.71823053372194    1.19182495540846   -2.44977953866938
H         2.46606994677858    2.51198732622122   -3.63038332810645
H         2.85645172773032    2.86569502588161   -1.93897598401643
C         0.27998613839086    3.62362402137902   -2.34056682127468
H        -0.72323094508425    3.69216039153801   -1.92797216399571
H         0.91953724987066    4.30716027903240   -1.78368258607567
H         0.26213001867101    3.93591097413802   -3.38483029373907
B         1.56796211606214    0.60817224381354    1.86738800703512
O         2.93026807142845    0.56560053325354    2.13222970182682
C         3.36389643699792    1.88699123014458    2.50830715142336
C         4.53390659936673    1.79136921902204    3.47873193821183
H         4.27950199706999    1.16296372229773    4.32757830286197
H         5.38855621080485    1.34649094343758    2.97113075902914
H         4.81608432620410    2.78188186334829    3.83511723369611
C         3.79908228461418    2.57600765969417    1.21031907841133
H         4.19999204067846    3.57200713735499    1.39412772096956
H         4.56294979800919    1.96446795089759    0.73321047833179
H         2.95069423811770    2.62744557043363    0.52928646202443
C         2.05360376314222    2.50386788652103    3.08956640247704
O         1.04209912626538    1.80425982846934    2.33824080882230
C         1.89300838899113    4.00616618319642    2.88870681839341
H         1.86750079020400    4.24959298056746    1.83039320037221
H         0.95557726646402    4.33554507531208    3.33526188640624
H         2.71341407763083    4.54302069724227    3.36450222162192
C         1.83324440199115    2.13926907281183    4.56156301570192
H         1.93556072518187    1.06271038820825    4.69387320740319
H         2.53448515691082    2.66025069492293    5.21119019521914
H         0.81846283294137    2.41739560230384    4.84627293912975
B         2.27820000000000   -1.33090000000000    0.17410000000000
O         2.89937432259903   -2.56292189387733    0.38469313210583
C         4.26514210903980   -2.48302049529896   -0.07926263553746
C         5.10939992132937   -2.05820022064327    1.12629670996125
H         4.74951524880709   -1.10055539549721    1.49952874570594
H         4.97696985663172   -2.79490176514022    1.91702445196870
H         6.16745671703737   -1.99716669132350    0.87442981530221
C         4.72072149020915   -3.84510816815151   -0.58916598904926
H         4.74978019787120   -4.54915826388561    0.24114883174956
H         5.71877273375497   -3.77357913271850   -1.02079987205712
H         4.03544590644547   -4.23317997947843   -1.33796217721581
C         4.16605834651076   -1.35959906698818   -1.15876808144921
O         3.07323242432530   -0.56328569505735   -0.66313132965957
C         5.40930569889556   -0.49129956881618   -1.31621855354612
H         6.26551244935031   -1.09718242943085   -1.61181550715267
H         5.23105928805260    0.25987714634115   -2.08448646492114
H         5.63625625664661    0.02273440852618   -0.38679185157581
C         3.72936604242257   -1.89913513809860   -2.52691914289903
H         2.83737635963600   -2.51460827551175   -2.41777099148092
H         3.47168870808840   -1.05785702987471   -3.16892899764537
H         4.51936204351364   -2.47644782846745   -3.00451083457397
H        -3.38431605202722   -3.98910216109946   -2.57929469547794
H        -5.20011193355017    1.50374708328148    1.29681856929190
C         0.23590000000000   -1.68140000000000    2.96029999999999
C        -1.01588690907504   -2.10840268094622    3.44173452521543
N         1.32019884119953   -1.73800583467836    3.73425580621580
C        -1.16711907420845   -2.59875079773665    4.72634387209449
H        -1.88165188443881   -2.07133746699471    2.79517562500600
C         1.17893805367416   -2.22885753853341    4.95567957701037
C        -0.02771426580814   -2.70131474900799    5.52582519530754
H        -2.13297022960454   -2.93080221113569    5.08391261067964
N         2.18374842186900   -2.45303740854955    5.84750718212978
C         0.31096703498888   -3.23390089091366    6.80130054680290
C         1.65740022436111   -3.07321525703583    6.94949148028690
H         3.15595590347581   -2.26025839305130    5.67822707166245
H        -0.35826421476203   -3.68937571209211    7.50570659225379
H         2.29084238864335   -3.36441803629410    7.76628712611208
99
 energy: -144.436629168460 gnorm: 0.038377148143 xtb: 6.4.1 (1a32961)
N        -0.95412284393687   -2.09081646350319   -0.26175537397650
C        -2.23202683223760   -1.68320526148152   -0.36824748179137
C        -3.13253443360170   -2.35676183854674   -1.20278889093610
C        -2.71034728437683   -3.45514184588753   -1.91849774781467
C        -1.38944737792924   -3.87351325813020   -1.78373009184247
C        -0.55930267014831   -3.15809179330556   -0.94895770989833
H         0.47343994818113   -3.44115418308110   -0.80703769299612
H        -1.01865374701814   -4.73309632431899   -2.31718911505088
H        -4.15224240990826   -2.02334998640117   -1.29776066532270
C        -2.59831137978575   -0.51555391628837    0.42583619540664
N        -1.60674107781567    0.05903766983431    1.14050300382826
C        -1.89261132711494    1.12577393314211    1.88269686518889
C        -3.15466314248738    1.67497959282759    1.97409932224114
C        -4.18796547466531    1.09115347436941    1.24811592505148
C        -3.90227115752513   -0.00733137460606    0.46688339227945
H        -4.69142678686418   -0.47266045747759   -0.09918012866060
H        -3.33048487680799    2.53304593388578    2.60217455183368
H        -1.05475768695863    1.54850782251811    2.41346935320726
Ir        0.42150000000000   -0.81650000000000    0.91330000000000
H         0.87260000000000   -2.23030000000000    1.54050000000000
B         0.49486704307542    0.44052815451503   -0.76491537913240
O         0.15583250172774   -0.02173252760894   -2.02921446758946
C         0.00512794244787    1.09531426934388   -2.92262252830411
C         0.48866683207803    0.73877715109599   -4.32475737712124
H         1.50388762329493    0.35854422152806   -4.30418172761863
H         0.44356742014002    1.61669611496689   -4.96426147326571
H        -0.15409157703319   -0.03154045225422   -4.74278301525414
C        -1.49751803392916    1.40616065471473   -2.96892295789817
H        -1.71832355108769    2.21467198837069   -3.65925460522161
H        -2.02631461978469    0.51075052244290   -3.28886933655617
H        -1.84683848175345    1.66454621370296   -1.97145153243575
C         0.82330996768380    2.20931713189496   -2.20070132395264
O         0.75829856375594    1.79034234007542   -0.82742886392496
C         2.30317052092607    2.19709070916649   -2.59852999409333
H         2.70375375857661    1.19951805990292   -2.43999483214759
H         2.44164422417039    2.50983519175540   -3.62959057838207
H         2.84535968863298    2.87652533312000   -1.94571212740332
C         0.26868786006257    3.62347282915298   -2.33850474597442
H        -0.73027026160055    3.69759736574224   -1.92221283068795
H         0.91326930576068    4.30594404642472   -1.79139441005466
H         0.25110862826881    3.91856818128387   -3.38424665438289
B         1.57764127634175    0.61702335859203    1.86382928618626
O         2.93208621429155    0.57924994614426    2.11533668036450
C         3.36450638663818    1.89017479545875    2.50866411689096
C         4.53218922096677    1.79378434849745    3.48271083734984
H         4.27968585762021    1.16101089501603    4.32553318436104
H         5.38452806984781    1.35611139454992    2.97110587609515
H         4.80407064413004    2.78395945421487    3.83714208135237
C         3.80383367714407    2.59175467093291    1.21891609302675
H         4.20054634238028    3.58387545130756    1.41141325245416
H         4.56690153778887    1.98330690697664    0.74149278746417
H         2.95375598896814    2.63719603001113    0.54274739948420
C         2.05478182227330    2.50176225946399    3.09024027215882
O         1.04510968538054    1.79397487533226    2.35337810853824
C         1.89336047190739    4.00391303150279    2.88835525608263
H         1.85933225025999    4.24630434692175    1.83226926596967
H         0.96090810381824    4.32839973839192    3.34188761772815
H         2.71727864661719    4.53235892045343    3.35931417408556
C         1.84702555686773    2.14316852359417    4.56638655953138
H         1.95149906275017    1.06765976370603    4.68865737071060
H         2.55094875082424    2.66644388705969    5.20558839595216
H         0.83461083553110    2.41787560765042    4.85384670439173
B         2.27820000000000   -1.33090000000000    0.17410000000000
O         2.90076892139426   -2.55135287841064    0.38969719223730
C         4.25716743461383   -2.48088245149753   -0.08291396114293
C         5.11064028314535   -2.06038270473491    1.11690267440610
H         4.74286969710651   -1.10772224295847    1.48916616685899
H         4.98042771004319   -2.79772872431131    1.90349968130852
H         6.16257206533028   -1.99775736508525    0.85550662576355
C         4.71310378313957   -3.84244217767539   -0.59556715097277
H         4.74438864730338   -4.53964979534434    0.23652948406225
H         5.70726560417799   -3.76133441840202   -1.02558060547571
H         4.02827716574345   -4.23270540114540   -1.33998805772589
C         4.16085767215512   -1.35854956780228   -1.15928731703057
O         3.06083198397986   -0.57204611659846   -0.67218255311255
C         5.40547417008893   -0.49166490269574   -1.31179405145321
H         6.25388387398885   -1.10485525058109   -1.60180536165299
H         5.22892289582765    0.25307999682513   -2.08265237803878
H         5.62836883990609    0.02394240818716   -0.38509160427243
C         3.73896365328119   -1.90136785440165   -2.53140181352709
H         2.84823211443597   -2.51429658419441   -2.42098173667181
H         3.48478466754428   -1.06212871085141   -3.17387659859387
H         4.53532938167064   -2.47431277924183   -2.99584936087273
H        -3.39122351447241   -3.98104908060451   -2.56943890324344
H        -5.19095803697644    1.48701551043049    1.29450718400830
C         0.23590000000000   -1.68139999999999    2.96029999999998
C        -1.02012720937301   -2.11039364061449    3.43849710327650
N         1.31407765872872   -1.73324217725344    3.73804582756923
C        -1.17448050077534   -2.59736144385130    4.72227028249130
H        -1.88239697285120   -2.07591230642564    2.78782209091467
C         1.17177162871215   -2.21955844053368    4.95769991265620
C        -0.03932608046061   -2.69524353566963    5.52651449765894
H        -2.14093005323223   -2.93061135703898    5.07705227289979
N         2.17192332280641   -2.43898724350538    5.85440095151508
C         0.29898566327495   -3.22290825815535    6.80431755963607
C         1.64287921290767   -3.05777117753037    6.95571270544632
H         3.14410239542578   -2.24486150541248    5.68904111732857
H        -0.37023848723070   -3.67820617971575    7.50706379024475
H         2.27405659855995   -3.34450681404731    7.77447188648295
99
 energy: -144.437328744691 gnorm: 0.037989673785 xtb: 6.4.1 (1a32961)
N        -0.94570936465969   -2.08787544863168   -0.27225965959041
C        -2.22456067555339   -1.68025062202126   -0.37300711688338
C        -3.13068716640141   -2.35457016853722   -1.20244325367130
C        -2.71453331496129   -3.45315973948444   -1.91952241426898
C        -1.39128645344003   -3.87098938083822   -1.79205431425324
C        -0.55686187221443   -3.15429172409751   -0.96259168833992
H         0.47622828506834   -3.44045330651365   -0.82691514051783
H        -1.02494644209582   -4.73161680768894   -2.32579876373533
H        -4.15066888389094   -2.02012518737399   -1.28990874399087
C        -2.58807857007366   -0.51619580092815    0.42034140823353
N        -1.59666155609284    0.05736361960335    1.13715611208361
C        -1.88585132603262    1.12328532224575    1.87824607122269
C        -3.14805248524548    1.67057161003076    1.97182386046521
C        -4.18239474606613    1.08558679696423    1.24517465458609
C        -3.89331645772586   -0.00896759290834    0.46151272746080
H        -4.67991413243433   -0.47493656051081   -0.10733054086935
H        -3.32518513932441    2.52598292762561    2.60194826622878
H        -1.05100471409035    1.54754638172012    2.41311811554612
Ir        0.42150000000000   -0.81650000000000    0.91330000000000
H         0.87260000000000   -2.23030000000000    1.54050000000000
B         0.47941239896526    0.45759697755225   -0.74451157144317
O         0.13337110357769   -0.01120112485190   -2.00431202278723
C        -0.00472693484095    1.09691648488482   -2.90487632199884
C         0.48626714337305    0.72920267652868   -4.30239302173078
H         1.49898088665663    0.34313065822266   -4.27550202704778
H         0.44815694903819    1.60657319728077   -4.94238383939345
H        -0.15967045361965   -0.03849488288508   -4.71982444547568
C        -1.50625338053907    1.41558505930751   -2.96752708038056
H        -1.71251278110425    2.22168666284987   -3.66450119552355
H        -2.03562566112716    0.52127489515146   -3.28883159258651
H        -1.86380485011632    1.68065021513580   -1.97490025405285
C         0.81438326415553    2.21372073420013   -2.18803680806380
O         0.75782708693621    1.80222366344718   -0.81543986759668
C         2.29275693592869    2.20274952044899   -2.59496984120735
H         2.69531541402515    1.20713836275134   -2.42970876223732
H         2.42202148853140    2.50690898932546   -3.62934990611820
H         2.83627001429127    2.88971340627055   -1.95140790142280
C         0.25816702078583    3.62741780357655   -2.33423552281530
H        -0.73865567372498    3.70553767631211   -1.91399073794707
H         0.90635095367793    4.31457172344541   -1.79750070027689
H         0.23597817110440    3.90947258120523   -3.38319936620645
B         1.58014136268976    0.61293079441195    1.87828967742978
O         2.93646262561298    0.58625464112498    2.10179455750164
C         3.36559714527597    1.89252847018891    2.50758032059676
C         4.53336969258561    1.79403575416964    3.48297098747792
H         4.28292397983219    1.15565934362860    4.32187169737992
H         5.38809374626674    1.36397902760511    2.96923158503488
H         4.79775658827105    2.78421675539323    3.84206743595171
C         3.80721474051050    2.60805980381041    1.22504295485015
H         4.19922138469783    3.59943660624799    1.42797442819724
H         4.57428510317070    2.00614409472776    0.74586656605236
H         2.95833224018913    2.65480431967565    0.54792130074311
C         2.05620318479052    2.49963260159605    3.09481084938334
O         1.04560729276928    1.78440561788537    2.37055890545864
C         1.89039094058577    4.00176479361533    2.88978356587034
H         1.84688815260919    4.24221566422657    1.83361950645415
H         0.96199808460821    4.32583600684141    3.35152525792331
H         2.71899042114333    4.52925953005684    3.35276692060015
C         1.86052761391242    2.14627602129715    4.57496323463159
H         1.96807109127162    1.07136122010137    4.69690184591605
H         2.56904734521964    2.67318976470140    5.20512250796440
H         0.84978873898551    2.41964084439080    4.86851113951158
B         2.27820000000001   -1.33089999999999    0.17409999999999
O         2.90146031840383   -2.54591945405034    0.39557631352316
C         4.25175297371251   -2.47992726959023   -0.08550871649250
C         5.11403630500880   -2.06164332145364    1.10986161094586
H         4.74501910576843   -1.11104994087938    1.48569120518423
H         4.98947602209812   -2.80192427475033    1.89432318310519
H         6.16307392357416   -1.99646447886523    0.84039001443546
C         4.70476935842787   -3.84259171272033   -0.60069643343445
H         4.73987178258799   -4.53849795336192    0.23200447210970
H         5.69680352026543   -3.75775226645417   -1.03381534215999
H         4.01772757204657   -4.23358757652670   -1.34245719311387
C         4.15583278982149   -1.35787220550381   -1.16199040972400
O         3.05119935839944   -0.57605451448258   -0.68182105258429
C         5.40070991982910   -0.48928903890788   -1.30867040816447
H         6.24864922109073   -1.10601498056509   -1.59143195357118
H         5.22854298755493    0.25210798914269   -2.08345276713197
H         5.61840625820311    0.02894717606232   -0.38241309355645
C         3.74649262917357   -1.90313153248703   -2.53797619103587
H         2.85642714411072   -2.51744993185221   -2.43321506329461
H         3.49759864834934   -1.06503249524176   -3.18373814239115
H         4.54938514474419   -2.47457605694632   -2.99188910064501
H        -3.39925775876993   -3.97953772683849   -2.56564417406829
H        -5.18620334884439    1.47805435102019    1.29401302958477
C         0.23589999999999   -1.68139999999998    2.96029999999996
C        -1.02267854783307   -2.11229175092860    3.43304397814420
N         1.30892006858711   -1.72751336030384    3.74342865449675
C        -1.18180620052841   -2.59529550270016    4.71736568651739
H        -1.88110555072388   -2.08193092971480    2.77709506972945
C         1.16280726075847   -2.20931369756120    4.96366694929917
C        -0.05107652056734   -2.68729032363923    5.52830604544248
H        -2.14944968157919   -2.93017019865371    5.06823767337319
N         2.15816025316097   -2.42215170172168    5.86659107184994
C         0.28309414380454   -3.20929982547635    6.80940038345904
C         1.62554075055914   -3.03890245701852    6.96722799296131
H         3.13070142944887   -2.22584026428472    5.70582758613490
H        -0.38841368245387   -3.66451065566523    7.51006662778390
H         2.25378180542808   -3.32030101327762    7.79003348237026
99
 energy: -144.438190281208 gnorm: 0.038136519242 xtb: 6.4.1 (1a32961)
N        -0.93341960266261   -2.08593917113384   -0.28878586873425
C        -2.21430113636147   -1.67803262313893   -0.38081141128561
C        -3.12762708273732   -2.35391743874411   -1.20351080154232
C        -2.71889409572837   -3.45307615013776   -1.92310648493569
C        -1.39223618544756   -3.86943164533556   -1.80741774632887
C        -0.55068244338666   -3.15113133654591   -0.98520095753613
H         0.48434573281995   -3.43856827945124   -0.86133185599952
H        -1.03120494829902   -4.73054408343844   -2.34431686646019
H        -4.14853763052187   -2.01823973911991   -1.28021669936869
C        -2.57463148586809   -0.51698096206067    0.41381435416797
N        -1.58344494168288    0.05373123723731    1.13667716976400
C        -1.87556756764888    1.12035831229872    1.87756578734385
C        -3.13833810653217    1.66619167894291    1.97148920645771
C        -4.17342981655937    1.08139375478161    1.24196295335962
C        -3.88053786748449   -0.00808879386469    0.45365938324260
H        -4.66368830348550   -0.47323542246249   -0.12128142335262
H        -3.31698223292296    2.51901813357391    2.60460372626375
H        -1.04332699459897    1.54721190605295    2.41574977605420
Ir        0.42150000000000   -0.81650000000000    0.91330000000000
H         0.87260000000000   -2.23030000000000    1.54050000000000
B         0.47552378868507    0.48010442866370   -0.71733961654160
O         0.09931486572829    0.00593531556253   -1.96723918953404
C        -0.02332476883965    1.10207772946256   -2.87706143603953
C         0.47830591874512    0.71291611866746   -4.26648146791831
H         1.48636983248917    0.31463044298543   -4.22404940894410
H         0.45701259681096    1.58509724419765   -4.91510136047927
H        -0.17259545333663   -0.05215352885712   -4.68193531561363
C        -1.52259974543693    1.43368852511206   -2.96364188655578
H        -1.70917309364943    2.23574558572084   -3.67131943066640
H        -2.05455534037955    0.54113676410515   -3.28627619407514
H        -1.89502136512132    1.71126473071952   -1.97935598255950
C         0.80055962234044    2.22383022051523   -2.16959649874708
O         0.75860507529525    1.82124081185903   -0.79691939896753
C         2.27678180055640    2.21489760745988   -2.58925843623819
H         2.68549544510068    1.22341098298714   -2.41211238910552
H         2.39376700674204    2.50378058750535   -3.62972188247424
H         2.82210751776238    2.91554217445917   -1.96125013026848
C         0.23963124953165    3.63604732908567   -2.32615055996248
H        -0.75339910737301    3.71877636223381   -1.89683210305245
H         0.89294572236571    4.33308620041954   -1.80725425472225
H         0.20535499327120    3.90131413091838   -3.37977790435730
B         1.58667126363612    0.61700013589850    1.87632723802927
O         2.94347601179634    0.59976769935686    2.07685247217611
C         3.36937491600004    1.89900811312624    2.50479198113438
C         4.53691203263206    1.79232053761926    3.48196833250403
H         4.28948822815494    1.14186302326239    4.31306765559422