      -----------------------------------------------------------      
     |                   =====================                   |     
     |                           x T B                           |     
     |                   =====================                   |     
     |                         S. Grimme                         |     
     |          Mulliken Center for Theoretical Chemistry        |     
     |                    University of Bonn                     |     
      -----------------------------------------------------------      

   * xtb version 6.4.0 (f63f532) compiled by 'knkr256@seskscpg008.prim.scp' on 2021-04-09

   xtb is free software: you can redistribute it and/or modify it under
   the terms of the GNU Lesser General Public License as published by
   the Free Software Foundation, either version 3 of the License, or
   (at your option) any later version.
   
   xtb is distributed in the hope that it will be useful,
   but WITHOUT ANY WARRANTY; without even the implied warranty of
   MERCHANTABILITY or FITNESS FOR A PARTICULAR PURPOSE.  See the
   GNU Lesser General Public License for more details.
   
   Cite this work as:
   * C. Bannwarth, E. Caldeweyher, S. Ehlert, A. Hansen, P. Pracht,
     J. Seibert, S. Spicher, S. Grimme, WIREs Comput. Mol. Sci., 2020, 11,
     e01493. DOI: 10.1002/wcms.1493
   
   for GFN2-xTB:
   * C. Bannwarth, S. Ehlert and S. Grimme., J. Chem. Theory Comput., 2019,
     15, 1652-1671. DOI: 10.1021/acs.jctc.8b01176
   for GFN1-xTB:
   * S. Grimme, C. Bannwarth, P. Shushkov, J. Chem. Theory Comput., 2017,
     13, 1989-2009. DOI: 10.1021/acs.jctc.7b00118
   for GFN0-xTB:
   * P. Pracht, E. Caldeweyher, S. Ehlert, S. Grimme, ChemRxiv, 2019, preprint.
     DOI: 10.26434/chemrxiv.8326202.v1
   for GFN-FF:
   * S. Spicher and S. Grimme, Angew. Chem. Int. Ed., 2020, 59, 15665-15673.
     DOI: 10.1002/anie.202004239
   
   for DFT-D4:
   * E. Caldeweyher, C. Bannwarth and S. Grimme, J. Chem. Phys., 2017,
     147, 034112. DOI: 10.1063/1.4993215
   * E. Caldeweyher, S. Ehlert, A. Hansen, H. Neugebauer, S. Spicher,
     C. Bannwarth and S. Grimme, J. Chem. Phys., 2019, 150, 154122.
     DOI: 10.1063/1.5090222
   * E. Caldeweyher, J.-M. Mewes, S. Ehlert and S. Grimme, Phys. Chem. Chem. Phys.
     2020, 22, 8499-8512. DOI: 10.1039/D0CP00502A
   
   for sTDA-xTB:
   * S. Grimme and C. Bannwarth, J. Chem. Phys., 2016, 145, 054103.
     DOI: 10.1063/1.4959605
   
   in the mass-spec context:
   * V. Asgeirsson, C. Bauer and S. Grimme, Chem. Sci., 2017, 8, 4879.
     DOI: 10.1039/c7sc00601b
   * J. Koopman and S. Grimme, ACS Omega 2019, 4, 12, 15120-15133.
     DOI: 10.1021/acsomega.9b02011
   
   for metadynamics refer to:
   * S. Grimme, J. Chem. Theory Comput., 2019, 155, 2847-2862
     DOI: 10.1021/acs.jctc.9b00143
   
   for SPH calculations refer to:
   * S. Spicher and S. Grimme, J. Chem. Theory Comput., 2021, 17, 1701-1714
     DOI: 10.1021/acs.jctc.0c01306
   
   with help from (in alphabetical order)
   P. Atkinson, C. Bannwarth, F. Bohle, G. Brandenburg, E. Caldeweyher
   M. Checinski, S. Dohm, S. Ehlert, S. Ehrlich, I. Gerasimov, J. Koopman
   C. Lavinge, S. Lehtola, F. März, M. Müller, F. Musil, H. Neugebauer
   J. Pisarek, P. Pracht, J. Seibert, P. Shushkov, S. Spicher, M. Stahn
   T. Strunk, J. Stückrath, T. Rose, and J. Unsleber
   
 * started run on 2021/10/08 at 07:16:07.021     

           -------------------------------------------------
          |                Calculation Setup                |
           -------------------------------------------------

          program call               : xtb xtbopt.xyz --sp --alpb thf -P 6
          hostname                   : seskscpg010.prim.scp
          coordinate file            : xtbopt.xyz
          omp threads                :                     6
          number of atoms            :                   106
          number of electrons        :                   280
          charge                     :                     0
          spin                       :                   0.0
          first test random number   :      0.87017001535951

   ID    Z sym.   atoms
    1    7 N      1, 11, 93, 96
    2    6 C      2-6, 10, 12-15, 23, 24, 28, 32, 34, 38, 44, 45, 49, 53, 55,
                  59, 65, 66, 70, 74, 76, 80, 86-89, 91, 95, 99-101, 103
    3    1 H      7-9, 16-18, 20, 25-27, 29-31, 35-37, 39-41, 46-48, 50-52,
                  56-58, 60-62, 67-69, 71-73, 77-79, 81-85, 90, 92, 94, 97,
                  98, 102, 104-106
    4   77 Ir     19
    5    5 B      21, 42, 63
    6    8 O      22, 33, 43, 54, 64, 75

molecular fragmentation (1/2 indicates fragments):
111111111111111111111111111111111111111111111111111111111111111111111111
1111111111111222222222222222222222
# atoms in fragment 1/2:    85    21
 fragment masses (1/2) :      730.32      157.19
CMA distance (Bohr)    :  10.576
constraining FC (au)   :  0.0500

           -------------------------------------------------
          |                 G F N 2 - x T B                 |
           -------------------------------------------------

        Reference                      10.1021/acs.jctc.8b01176
      * Hamiltonian:
        H0-scaling (s, p, d)           1.850000    2.230000    2.230000
        zeta-weighting                 0.500000
      * Dispersion:
        s8                             2.700000
        a1                             0.520000
        a2                             5.000000
        s9                             5.000000
      * Repulsion:
        kExp                           1.500000    1.000000
        rExp                           1.000000
      * Coulomb:
        alpha                          2.000000
        third order                    shell-resolved
        anisotropic                    true
        a3                             3.000000
        a5                             4.000000
        cn-shift                       1.200000
        cn-exp                         4.000000
        max-rad                        5.000000

      * Solvation model:               ALPB
        Solvent                        thf
        Parameter file                 internal GFN2-xTB/ALPB
        Dielectric constant                7.6000E+00
        Reference state                gsolv [1 M gas/solution]
        Free energy shift                  5.3248E-03 Eh       3.3414E+00 kcal/mol
        Temperature                        2.9815E+02 K
        Density                            8.8300E-01 kg/L
        Solvent mass                       7.2106E+01 g/mol
        Interaction kernel             P16
        Born radius scaling (c1)           1.7311E+00
        Born radii integrator          GBOBC
        Born offset                        0.0000E+00 a0       0.0000E+00 AA
        H-bond correction              true
        Ion screening                  false
        Surface tension                    1.0000E-05 Eh       1.5569E+01 dyn/cm
        Grid points                               230 per atom
q/qsh data taken from xtbrestart
CAMM data taken from xtbrestart

          ...................................................
          :                      SETUP                      :
          :.................................................:
          :  # basis functions                 268          :
          :  # atomic orbitals                 267          :
          :  # shells                          159          :
          :  # electrons                       280          :
          :  max. iterations                   250          :
          :  Hamiltonian                  GFN2-xTB          :
          :  restarted?                       true          :
          :  GBSA solvation                   true          :
          :  PC potential                    false          :
          :  electronic temp.          300.0000000     K    :
          :  accuracy                    1.0000000          :
          :  -> integral cutoff          0.2500000E+02      :
          :  -> integral neglect         0.1000000E-07      :
          :  -> SCF convergence          0.1000000E-05 Eh   :
          :  -> wf. convergence          0.1000000E-03 e    :
          :  Broyden damping             0.4000000          :
          ...................................................

 iter      E             dE          RMSdq      gap      omega  full diag
   1   -154.9272658 -0.154927E+03  0.170E-05    0.93       0.0  T
   2   -154.9272658  0.588045E-10  0.280E-05    0.93     347.1  T
   3   -154.9272658 -0.730438E-10  0.114E-05    0.93     849.1  T

   *** convergence criteria satisfied after 3 iterations ***

         #    Occupation            Energy/Eh            Energy/eV
      -------------------------------------------------------------
         1        2.0000           -0.6770282             -18.4229
       ...           ...                  ...                  ...
       134        2.0000           -0.3548133              -9.6550
       135        2.0000           -0.3485687              -9.4850
       136        2.0000           -0.3373337              -9.1793
       137        2.0000           -0.3279634              -8.9243
       138        2.0000           -0.3234114              -8.8005
       139        2.0000           -0.3164682              -8.6115
       140        2.0000           -0.3130446              -8.5184 (HOMO)
       141                         -0.2789203              -7.5898 (LUMO)
       142                         -0.2513370              -6.8392
       143                         -0.2483114              -6.7569
       144                         -0.2346767              -6.3859
       145                         -0.2220774              -6.0430
       ...                                ...                  ...
       267                          3.7337705             101.6011
      -------------------------------------------------------------
                  HL-Gap            0.0341243 Eh            0.9286 eV
             Fermi-level           -0.2959697 Eh           -8.0537 eV

 SCC (total)                   0 d,  0 h,  0 min,  0.113 sec
 SCC setup                      ...        0 min,  0.002 sec (  1.967%)
 Dispersion                     ...        0 min,  0.003 sec (  2.264%)
 classical contributions        ...        0 min,  0.000 sec (  0.142%)
 integral evaluation            ...        0 min,  0.031 sec ( 27.333%)
 iterations                     ...        0 min,  0.035 sec ( 30.568%)
 molecular gradient             ...        0 min,  0.042 sec ( 37.106%)
 printout                       ...        0 min,  0.001 sec (  0.572%)

         :::::::::::::::::::::::::::::::::::::::::::::::::::::
         ::                     SUMMARY                     ::
         :::::::::::::::::::::::::::::::::::::::::::::::::::::
         :: total energy            -152.899900116256 Eh    ::
         :: total w/o Gsasa/hb      -152.857909642061 Eh    ::
         :: gradient norm              0.033048045402 Eh/a0 ::
         :: HOMO-LUMO gap              0.928568447737 eV    ::
         ::.................................................::
         :: SCC energy              -154.927265820944 Eh    ::
         :: -> isotropic ES            0.244355207734 Eh    ::
         :: -> anisotropic ES          0.014891431154 Eh    ::
         :: -> anisotropic XC          0.059644460487 Eh    ::
         :: -> dispersion             -0.148047386306 Eh    ::
         :: -> Gsolv                  -0.051704755272 Eh    ::
         ::    -> Gelec               -0.009714281077 Eh    ::
         ::    -> Gsasa               -0.044760423613 Eh    ::
         ::    -> Ghb                 -0.002554866026 Eh    ::
         ::    -> Gshift               0.005324815444 Eh    ::
         :: repulsion energy           2.017945721111 Eh    ::
         :: add. restraining           0.000000000000 Eh    ::
         :: total charge               0.000000000864 e     ::
         :::::::::::::::::::::::::::::::::::::::::::::::::::::

           -------------------------------------------------
          |                Property Printout                |
           -------------------------------------------------

    * Orbital Energies and Occupations

         #    Occupation            Energy/Eh            Energy/eV
      -------------------------------------------------------------
         1        2.0000           -0.6770282             -18.4229
       ...           ...                  ...                  ...
       128        2.0000           -0.3916147             -10.6564
       129        2.0000           -0.3887258             -10.5778
       130        2.0000           -0.3856185             -10.4932
       131        2.0000           -0.3831169             -10.4251
       132        2.0000           -0.3718599             -10.1188
       133        2.0000           -0.3647165              -9.9244
       134        2.0000           -0.3548133              -9.6550
       135        2.0000           -0.3485687              -9.4850
       136        2.0000           -0.3373337              -9.1793
       137        2.0000           -0.3279634              -8.9243
       138        2.0000           -0.3234114              -8.8005
       139        2.0000           -0.3164682              -8.6115
       140        2.0000           -0.3130446              -8.5184 (HOMO)
       141                         -0.2789203              -7.5898 (LUMO)
       142                         -0.2513370              -6.8392
       143                         -0.2483114              -6.7569
       144                         -0.2346767              -6.3859
       145                         -0.2220774              -6.0430
       146                         -0.2073154              -5.6413
       147                         -0.1934991              -5.2654
       148                         -0.1698560              -4.6220
       149                         -0.1525366              -4.1507
       150                         -0.1291641              -3.5147
       151                         -0.1274143              -3.4671
       ...                                ...                  ...
       267                          3.7337705             101.6011
      -------------------------------------------------------------
                  HL-Gap            0.0341243 Eh            0.9286 eV
             Fermi-level           -0.2959697 Eh           -8.0537 eV

     #   Z          covCN         q      C6AA      α(0)
     1   7 N        2.556    -0.120    23.648     7.222
     2   6 C        2.954     0.077    26.270     8.407
     3   6 C        2.918    -0.043    29.063     8.840
     4   6 C        2.923    -0.022    28.553     8.763
     5   6 C        2.915    -0.044    29.080     8.843
     6   6 C        2.892     0.047    26.937     8.509
     7   1 H        0.926     0.053     2.285     2.364
     8   1 H        0.926     0.057     2.228     2.334
     9   1 H        0.926     0.049     2.331     2.387
    10   6 C        2.954     0.074    26.338     8.418
    11   7 N        2.552    -0.128    23.804     7.246
    12   6 C        2.890     0.042    27.049     8.527
    13   6 C        2.915    -0.044    29.105     8.847
    14   6 C        2.922    -0.024    28.598     8.770
    15   6 C        2.919    -0.044    29.100     8.846
    16   1 H        0.926     0.047     2.357     2.401
    17   1 H        0.926     0.052     2.298     2.371
    18   1 H        0.926     0.074     2.045     2.236
    19  77 Ir       5.945    -0.150   387.498    36.402
    20   1 H        0.977     0.084     1.935     2.173
    21   5 B        2.628     0.404    16.019     6.764
    22   8 O        1.638    -0.410    21.052     6.193
    23   6 C        3.836     0.130    18.444     6.110
    24   6 C        3.755    -0.122    22.888     6.822
    25   1 H        0.925     0.054     2.276     2.359
    26   1 H        0.925     0.045     2.378     2.411
    27   1 H        0.925     0.051     2.304     2.374
    28   6 C        3.754    -0.109    22.648     6.786
    29   1 H        0.925     0.048     2.346     2.395
    30   1 H        0.925     0.041     2.429     2.437
    31   1 H        0.925     0.029     2.606     2.525
    32   6 C        3.840     0.131    18.436     6.108
    33   8 O        1.637    -0.400    20.861     6.165
    34   6 C        3.755    -0.120    22.860     6.817
    35   1 H        0.925     0.050     2.325     2.384
    36   1 H        0.925     0.047     2.361     2.403
    37   1 H        0.925     0.050     2.319     2.382
    38   6 C        3.754    -0.120    22.853     6.816
    39   1 H        0.925     0.048     2.351     2.398
    40   1 H        0.925     0.053     2.280     2.361
    41   1 H        0.925     0.046     2.376     2.411
    42   5 B        2.630     0.403    16.021     6.762
    43   8 O        1.637    -0.382    20.512     6.113
    44   6 C        3.839     0.129    18.469     6.114
    45   6 C        3.755    -0.126    22.965     6.833
    46   1 H        0.925     0.057     2.237     2.339
    47   1 H        0.925     0.056     2.248     2.345
    48   1 H        0.925     0.047     2.352     2.399
    49   6 C        3.755    -0.122    22.894     6.823
    50   1 H        0.925     0.048     2.341     2.392
    51   1 H        0.925     0.045     2.386     2.416
    52   1 H        0.925     0.054     2.274     2.358
    53   6 C        3.835     0.128    18.478     6.116
    54   8 O        1.638    -0.384    20.544     6.118
    55   6 C        3.755    -0.123    22.923     6.827
    56   1 H        0.925     0.055     2.263     2.353
    57   1 H        0.925     0.053     2.277     2.360
    58   1 H        0.925     0.048     2.340     2.392
    59   6 C        3.755    -0.117    22.788     6.807
    60   1 H        0.925     0.040     2.454     2.450
    61   1 H        0.925     0.052     2.299     2.371
    62   1 H        0.925     0.047     2.352     2.398
    63   5 B        2.626     0.403    16.047     6.771
    64   8 O        1.637    -0.377    20.410     6.098
    65   6 C        3.833     0.125    18.526     6.124
    66   6 C        3.755    -0.129    23.039     6.844
    67   1 H        0.925     0.059     2.215     2.327
    68   1 H        0.925     0.053     2.283     2.363
    69   1 H        0.925     0.051     2.313     2.378
    70   6 C        3.755    -0.129    23.043     6.845
    71   1 H        0.925     0.061     2.190     2.314
    72   1 H        0.925     0.051     2.302     2.373
    73   1 H        0.925     0.052     2.289     2.366
    74   6 C        3.829     0.127    18.502     6.120
    75   8 O        1.637    -0.380    20.476     6.108
    76   6 C        3.755    -0.125    22.945     6.830
    77   1 H        0.925     0.051     2.303     2.373
    78   1 H        0.925     0.054     2.267     2.354
    79   1 H        0.925     0.055     2.261     2.352
    80   6 C        3.755    -0.123    22.910     6.825
    81   1 H        0.925     0.040     2.442     2.444
    82   1 H        0.925     0.051     2.310     2.377
    83   1 H        0.925     0.055     2.255     2.348
    84   1 H        0.926     0.055     2.258     2.350
    85   1 H        0.926     0.051     2.303     2.373
    86   6 C        2.834    -0.009    28.233     8.707
    87   6 C        2.921    -0.044    29.086     8.844
    88   6 C        2.920    -0.055    29.367     8.887
    89   6 C        2.908     0.050    26.889     8.503
    90   1 H        0.926     0.029     2.597     2.520
    91   6 C        2.958     0.086    26.076     8.376
    92   1 H        0.926     0.050     2.325     2.385
    93   7 N        1.841    -0.266    27.769     7.809
    94   1 H        0.925     0.033     2.551     2.497
    95   6 C        3.749    -0.024    21.074     6.547
    96   7 N        2.860    -0.001    21.278     6.851
    97   1 H        0.924     0.069     2.097     2.264
    98   1 H        0.924     0.080     1.977     2.199
    99   6 C        3.062    -0.029    28.672     8.781
   100   6 C        3.062    -0.028    28.641     8.776
   101   6 C        3.059    -0.075    29.804     8.953
   102   1 H        0.926     0.026     2.644     2.543
   103   6 C        3.059    -0.074    29.777     8.949
   104   1 H        0.926     0.028     2.616     2.529
   105   1 H        0.926     0.017     2.778     2.607
   106   1 H        0.926     0.014     2.822     2.627

 Mol. C6AA /au·bohr⁶  :     121712.282489
 Mol. C8AA /au·bohr⁸  :    3216286.651932
 Mol. α(0) /au        :        542.224181


Wiberg/Mayer (AO) data.
largest (>0.10) Wiberg bond orders for each atom

 ---------------------------------------------------------------------------
     #   Z sym  total        # sym  WBO       # sym  WBO       # sym  WBO
 ---------------------------------------------------------------------------
     1   7 N    3.410 --     6 C    1.386     2 C    1.311    19 Ir   0.450
     2   6 C    3.978 --     3 C    1.347     1 N    1.311    10 C    1.093
     3   6 C    3.987 --     4 C    1.485     2 C    1.347     9 H    0.961
                             6 C    0.106
     4   6 C    3.984 --     3 C    1.485     5 C    1.381    84 H    0.969
     5   6 C    3.978 --     6 C    1.462     4 C    1.381     8 H    0.968
     6   6 C    3.978 --     5 C    1.462     1 N    1.386     7 H    0.956
                             3 C    0.106
     7   1 H    0.997 --     6 C    0.956
     8   1 H    0.996 --     5 C    0.968
     9   1 H    0.997 --     3 C    0.961
    10   6 C    3.978 --    15 C    1.353    11 N    1.302     2 C    1.093
    11   7 N    3.404 --    12 C    1.385    10 C    1.302    19 Ir   0.432
    12   6 C    3.973 --    13 C    1.458    11 N    1.385    18 H    0.948
                            15 C    0.105
    13   6 C    3.981 --    12 C    1.458    14 C    1.384    17 H    0.969
    14   6 C    3.982 --    15 C    1.479    13 C    1.384    85 H    0.969
    15   6 C    3.989 --    14 C    1.479    10 C    1.353    16 H    0.961
                            12 C    0.105
    16   1 H    0.997 --    15 C    0.961
    17   1 H    0.996 --    13 C    0.969
    18   1 H    0.994 --    12 C    0.948
    19  77 Ir   5.190 --    63 B    0.864    42 B    0.849    21 B    0.712
                            86 C    0.609    20 H    0.541     1 N    0.450
                            11 N    0.432
    20   1 H    0.991 --    19 Ir   0.541    86 C    0.336
    21   5 B    3.273 --    33 O    1.117    22 O    1.092    19 Ir   0.712
    22   8 O    2.189 --    21 B    1.092    23 C    0.942
    23   6 C    3.943 --    24 C    0.997    28 C    0.990    22 O    0.942
                            32 C    0.941
    24   6 C    3.994 --    23 C    0.997    26 H    0.983    27 H    0.983
                            25 H    0.983
    25   1 H    0.997 --    24 C    0.983
    26   1 H    0.997 --    24 C    0.983
    27   1 H    0.997 --    24 C    0.983
    28   6 C    3.997 --    23 C    0.990    31 H    0.985    29 H    0.984
                            30 H    0.984
    29   1 H    0.997 --    28 C    0.984
    30   1 H    0.998 --    28 C    0.984
    31   1 H    0.999 --    28 C    0.985
    32   6 C    3.939 --    38 C    0.997    34 C    0.991    23 C    0.941
                            33 O    0.938
    33   8 O    2.207 --    21 B    1.117    32 C    0.938
    34   6 C    3.994 --    32 C    0.991    36 H    0.984    37 H    0.982
                            35 H    0.982
    35   1 H    0.998 --    34 C    0.982
    36   1 H    0.997 --    34 C    0.984
    37   1 H    0.997 --    34 C    0.982
    38   6 C    3.994 --    32 C    0.997    41 H    0.984    39 H    0.983
                            40 H    0.983
    39   1 H    0.998 --    38 C    0.983
    40   1 H    0.997 --    38 C    0.983
    41   1 H    0.997 --    38 C    0.984
    42   5 B    3.336 --    43 O    1.119    54 O    1.110    19 Ir   0.849
    43   8 O    2.227 --    42 B    1.119    44 C    0.935
    44   6 C    3.936 --    45 C    0.997    49 C    0.991    53 C    0.939
                            43 O    0.935
    45   6 C    3.992 --    44 C    0.997    48 H    0.983    47 H    0.982
                            46 H    0.978
    46   1 H    0.997 --    45 C    0.978
    47   1 H    0.997 --    45 C    0.982
    48   1 H    0.997 --    45 C    0.983
    49   6 C    3.994 --    44 C    0.991    50 H    0.983    51 H    0.982
                            52 H    0.979
    50   1 H    0.997 --    49 C    0.983
    51   1 H    0.998 --    49 C    0.982
    52   1 H    0.997 --    49 C    0.979
    53   6 C    3.937 --    55 C    0.996    59 C    0.992    44 C    0.939
                            54 O    0.934
    54   8 O    2.228 --    42 B    1.110    53 C    0.934
    55   6 C    3.993 --    53 C    0.996    58 H    0.983    57 H    0.983
                            56 H    0.982
    56   1 H    0.997 --    55 C    0.982
    57   1 H    0.997 --    55 C    0.983
    58   1 H    0.996 --    55 C    0.983
    59   6 C    3.994 --    53 C    0.992    62 H    0.983    61 H    0.983
                            60 H    0.983
    60   1 H    0.998 --    59 C    0.983
    61   1 H    0.996 --    59 C    0.983
    62   1 H    0.997 --    59 C    0.983
    63   5 B    3.363 --    75 O    1.122    64 O    1.115    19 Ir   0.864
    64   8 O    2.230 --    63 B    1.115    65 C    0.937
    65   6 C    3.936 --    70 C    0.997    66 C    0.991    74 C    0.938
                            64 O    0.937
    66   6 C    3.992 --    65 C    0.991    69 H    0.983    68 H    0.983
                            67 H    0.979
    67   1 H    0.997 --    66 C    0.979
    68   1 H    0.997 --    66 C    0.983
    69   1 H    0.996 --    66 C    0.983
    70   6 C    3.992 --    65 C    0.997    72 H    0.983    73 H    0.982
                            71 H    0.982
    71   1 H    0.996 --    70 C    0.982
    72   1 H    0.996 --    70 C    0.983
    73   1 H    0.997 --    70 C    0.982
    74   6 C    3.934 --    76 C    0.996    80 C    0.992    65 C    0.938
                            75 O    0.934
    75   8 O    2.235 --    63 B    1.122    74 C    0.934
    76   6 C    3.992 --    74 C    0.996    77 H    0.983    78 H    0.982
                            79 H    0.982
    77   1 H    0.996 --    76 C    0.983
    78   1 H    0.997 --    76 C    0.982
    79   1 H    0.997 --    76 C    0.982
    80   6 C    3.995 --    74 C    0.992    81 H    0.984    83 H    0.983
                            82 H    0.983
    81   1 H    0.998 --    80 C    0.984
    82   1 H    0.997 --    80 C    0.983
    83   1 H    0.996 --    80 C    0.983
    84   1 H    0.996 --     4 C    0.969
    85   1 H    0.996 --    14 C    0.969
    86   6 C    3.940 --    88 C    1.373    87 C    1.373    19 Ir   0.609
                            20 H    0.336
    87   6 C    3.989 --    89 C    1.434    86 C    1.373    90 H    0.963
    88   6 C    3.988 --    91 C    1.425    86 C    1.373    92 H    0.961
                            89 C    0.102
    89   6 C    3.980 --    87 C    1.434    93 N    1.426    94 H    0.962
                            88 C    0.102
    90   1 H    0.999 --    87 C    0.963
    91   6 C    3.977 --    88 C    1.425    93 N    1.391    95 C    0.982
    92   1 H    0.997 --    88 C    0.961
    93   7 N    3.046 --    89 C    1.426    91 C    1.391
    94   1 H    0.998 --    89 C    0.962
    95   6 C    3.971 --    96 N    0.989    91 C    0.982    98 H    0.963
                            97 H    0.962
    96   7 N    3.640 --   100 C    1.229    99 C    1.228    95 C    0.989
    97   1 H    0.995 --    95 C    0.962
    98   1 H    0.993 --    95 C    0.963
    99   6 C    3.941 --   101 C    1.540    96 N    1.228   102 H    0.969
                           100 C    0.130
   100   6 C    3.944 --   103 C    1.547    96 N    1.229   104 H    0.971
                            99 C    0.130
   101   6 C    3.977 --    99 C    1.540   103 C    1.333   105 H    0.975
   102   1 H    0.999 --    99 C    0.969
   103   6 C    3.978 --   100 C    1.547   101 C    1.333   106 H    0.975
   104   1 H    0.999 --   100 C    0.971
   105   1 H    0.999 --   101 C    0.975
   106   1 H    0.999 --   103 C    0.975
 ---------------------------------------------------------------------------

Topologies differ in total number of bonds
Writing topology from bond orders to xtbtopo.mol

molecular dipole:
                 x           y           z       tot (Debye)
 q only:       -0.081      -0.175      -2.089
   full:       -1.237       0.093      -2.971       8.184
molecular quadrupole (traceless):
                xx          xy          yy          xz          yz          zz
 q only:       19.185      -5.084      10.196      -4.027       4.311     -29.381
  q+dip:       26.792      -4.580      11.622      -5.621      11.533     -38.415
   full:       23.682      -3.783      14.317      -7.033       8.606     -37.999


           -------------------------------------------------
          | TOTAL ENERGY             -152.899900116256 Eh   |
          | GRADIENT NORM               0.033048045402 Eh/α |
          | HOMO-LUMO GAP               0.928568447737 eV   |
           -------------------------------------------------

------------------------------------------------------------------------
 * finished run on 2021/10/08 at 07:16:07.181     
------------------------------------------------------------------------
 total:
 * wall-time:     0 d,  0 h,  0 min,  0.160 sec
 *  cpu-time:     0 d,  0 h,  0 min,  0.932 sec
 * ratio c/w:     5.842 speedup
 SCF:
 * wall-time:     0 d,  0 h,  0 min,  0.114 sec
 *  cpu-time:     0 d,  0 h,  0 min,  0.684 sec
 * ratio c/w:     5.976 speedup

