106
 energy: -152.885209271936 gnorm: 0.076432414465 xtb: 6.4.0 (f63f532)
N        -0.96510000000000   -2.11530000000000   -0.24090000000000
C        -2.24700000000000   -1.69840000000000   -0.36219999999999
C        -3.14040000000000   -2.36820000000000   -1.21200000000000
C        -2.70220000000000   -3.47560000000000   -1.93050000000000
C        -1.37780000000000   -3.89880000000000   -1.78760000000000
C        -0.54290000000000   -3.18670000000000   -0.93510000000000
H         0.49810000000000   -3.45630000000000   -0.78940000000000
H        -0.99570000000000   -4.76030000000000   -2.32770000000000
H        -4.16500000000000   -2.02890000000000   -1.31830000000000
C        -2.62130000000000   -0.50950000000000    0.44100000000000
N        -1.62600000000000    0.07330000000000    1.16020000000000
C        -1.89680000000000    1.15239999999999    1.91690000000000
C        -3.17229999999999    1.70330000000000    1.99650000000000
C        -4.20510000000000    1.11740000000000    1.26270000000000
C        -3.92610000000000    0.00250000000000    0.47820000000000
H        -4.71959999999999   -0.46420000000000   -0.09520000000000
H        -3.34630000000000    2.57510000000000    2.62070000000000
H        -1.04450000000000    1.57420000000000    2.43690000000000
Ir        0.42150000000000   -0.81650000000000    0.91330000000000
H         0.87260000000000   -2.23030000000000    1.54050000000000
B         0.50670000000000    0.41560000000000   -0.81540000000000
O         0.19500000000000   -0.04700000000000   -2.09150000000000
C         0.00650000000000    1.10040000000000   -2.95430000000000
C         0.49020000000000    0.74740000000000   -4.35780000000000
H         1.51610000000000    0.37380000000000   -4.33700000000000
H         0.44730000000000    1.62240000000000   -5.01670000000000
H        -0.14740000000000   -0.03390000000000   -4.78430000000000
C        -1.50120000000000    1.39560000000000   -2.96669999999999
H        -1.75370000000000    2.21460000000000   -3.64850000000000
H        -2.03200000000000    0.49450000000000   -3.28930000000000
H        -1.85170000000000    1.65210000000000   -1.96220000000000
C         0.84230000000000    2.20670000000000   -2.22040000000000
O         0.75200000000000    1.78260000000000   -0.83690000000000
C         2.32930000000001    2.18620000000000   -2.59900000000000
H         2.74130000000000    1.18500000000000   -2.45750000000000
H         2.48870000000000    2.51300000000000   -3.63180000000000
H         2.87200000000000    2.86270000000000   -1.93200000000000
C         0.28440000000001    3.62290000000000   -2.33660000000000
H        -0.72650000000000    3.69040000000000   -1.92910000000000
H         0.92130000000000    4.31480000000000   -1.77610000000000
H         0.26430000000000    3.94810000000000   -3.38320000000000
B         1.56300000000000    0.60960000000000    1.84840000000000
O         2.92780000000000    0.55230000000000    2.15020000000000
C         3.36330000000000    1.88660000000000    2.50260000000000
C         4.53140000000000    1.78590000000000    3.47740000000001
H         4.27910000000000    1.16090000000000    4.33690000000000
H         5.39390000000000    1.33790000000000    2.97340000000000
H         4.82390000000000    2.77870000000000    3.83820000000000
C         3.79700000000000    2.56850000000000    1.19670000000000
H         4.20020000000000    3.57090000000000    1.37680000000000
H         4.56740000000000    1.95560000000000    0.72110000000000
H         2.95240000000000    2.63260000000000    0.50540000000000
C         2.05040000000000    2.50090000000000    3.09320000000000
O         1.03750000000000    1.81620000000000    2.31910000000000
C         1.89100000000000    4.00450000000000    2.88650000000000
H         1.87290000000000    4.25440000000000    1.82410000000000
H         0.94940000000000    4.34260000000000    3.33170000000000
H         2.71080000000000    4.55150000000000    3.36630000000000
C         1.82470000000000    2.13200000000000    4.56520000000000
H         1.92610000000000    1.05330000000000    4.71320000000000
H         2.52610000000000    2.65280000000000    5.22540000000000
H         0.80630000000000    2.41580000000000    4.84900000000000
B         2.27820000000000   -1.33090000000000    0.17410000000000
O         2.89460000000000   -2.57740000000000    0.38450000000000
C         4.26930000000000   -2.48200000000000   -0.07210000000000
C         5.10900000000000   -2.05380000000000    1.14010000000000
H         4.76350000000000   -1.08740000000000    1.51750000000000
H         4.98050000000000   -2.79470000000000    1.93590000000000
H         6.17420000000000   -1.99290000000000    0.89300000000000
C         4.71950000000000   -3.84660000000000   -0.58470000000000
H         4.75280000000000   -4.56130000000000    0.24420000000000
H         5.72330000000000   -3.78370000000000   -1.02010000000000
H         4.03500000000000   -4.23600000000000   -1.34170000000000
C         4.16440000000000   -1.36220000000000   -1.16300000000000
O         3.08520000000000   -0.55030000000000   -0.65400000000000
C         5.40720000000000   -0.48870000000000   -1.31549999999999
H         6.27320000000000   -1.09010000000000   -1.61530000000000
H         5.23300000000000    0.26930000000000   -2.08590000000000
H         5.64270000000000    0.02650000000000   -0.38240000000000
C         3.71800000000001   -1.89830000000000   -2.53110000000000
H         2.82530000000000   -2.52160000000000   -2.42740000000000
H         3.46090000000000   -1.05250000000000   -3.17550000000000
H         4.50570000000000   -2.48290000000000   -3.01790000000000
H        -3.38500000000000   -4.00130000000000   -2.59310000000000
H        -5.21400000000000    1.52080000000000    1.29960000000000
C         0.23590000000000   -1.68140000000000    2.96030000000000
C        -0.97789463871808   -2.15964506061896    3.45022894559668
C         1.32163134632678   -1.76637204654531    3.84013548415245
C        -1.05087736218869   -2.63929931066850    4.74782008491418
H        -1.86379276878563   -2.19584595177595    2.83054683483794
C         1.17822568390663   -2.33155131154233    5.09946291665772
H         2.30195568152162   -1.45459341812481    3.50540104330199
N        -0.00392640690317   -2.75978537596176    5.55962849171591
H        -1.98613387727337   -3.00673250154155    5.15593498830448
C         2.37528178133272   -2.57831316991290    5.98798032003927
N         2.67348038384269   -1.45632135886731    6.85161697878003
H         3.25374805681345   -2.77023489592084    5.36491327508041
H         2.16879647116308   -3.45381748016524    6.61199852693621
C         3.63439899055937   -0.51658252450079    6.63579208294709
C         2.02007253899114   -1.15646607802670    8.00764464766792
C         3.60087017198401    0.38849092757364    7.66517890200982
H         4.28183693677765   -0.57432907821851    5.77861409311858
C         2.57103344803593   -0.01917696699785    8.53816272520839
H         1.21638488492117   -1.77805365813512    8.36111559255765
H         4.24172131981625    1.24486795243985    7.78559314387248
H         2.27677216628871    0.46529450125957    9.45342179055043
106
 energy: -152.891705294417 gnorm: 0.047271475850 xtb: 6.4.0 (f63f532)
N        -0.96110324078916   -2.09947297978979   -0.25377650577738
C        -2.23927244685249   -1.69011184649329   -0.36537952640419
C        -3.13452983438772   -2.36267164452699   -1.20590957861993
C        -2.70415220095734   -3.46431107264794   -1.92157536405215
C        -1.38438065116587   -3.88313211459467   -1.78266262351067
C        -0.55372058883234   -3.16790220254110   -0.94188899592069
H         0.47999936816634   -3.44783627999847   -0.79220444900966
H        -1.00799346155143   -4.74314716433079   -2.31775459171027
H        -4.15507078688533   -2.02746424855715   -1.30948664308997
C        -2.61064432592813   -0.51298968852318    0.43499788450858
N        -1.61823855244803    0.06795213336169    1.14574659626288
C        -1.89698520861357    1.13848213843896    1.89375980993311
C        -3.16445361567330    1.68668146093642    1.98270088305188
C        -4.19557996566077    1.10233526769719    1.25621210490045
C        -3.91395413760414   -0.00421394769567    0.47584762760538
H        -4.70527546862988   -0.46779763060975   -0.09287074016188
H        -3.33942397870602    2.54968618665465    2.60956449900060
H        -1.05410088274555    1.55732285705917    2.42274292347292
Ir        0.42150000000000   -0.81650000000000    0.91330000000000
H         0.87260000000000   -2.23030000000000    1.54050000000000
B         0.49054837742526    0.42455638715833   -0.79058183948494
O         0.17497980561549   -0.03525956201937   -2.06232138596035
C         0.01017216321575    1.09653857264974   -2.94328688730481
C         0.48939192424259    0.74687258958182   -4.34807630758509
H         1.50844037943241    0.37039995209580   -4.32688382179934
H         0.44440566858784    1.62234821720323   -4.99640790662052
H        -0.14933310345246   -0.02903059905846   -4.76860880043111
C        -1.49397266698675    1.39865231506340   -2.96960792259008
H        -1.73223469431507    2.21150085187235   -3.65384242095730
H        -2.02387589986543    0.50154688899714   -3.28974063116837
H        -1.84078882430853    1.65378552447416   -1.96808955399784
C         0.83162673013666    2.20678331028310   -2.21218041881294
O         0.75528536459648    1.77994821717108   -0.83486969846765
C         2.31410314305508    2.19080887840086   -2.59972095001069
H         2.71876256357861    1.19182695179935   -2.45000426376428
H         2.46541022327933    2.51232701871073   -3.62942496539217
H         2.85622809943044    2.86578198839351   -1.93846214786864
C         0.27983060657359    3.62271112562211   -2.33925992352669
H        -0.72348016576990    3.69174411992160   -1.92704544668735
H         0.91933848618415    4.30654446380702   -1.78270161995884
H         0.26222036328422    3.93505536024273   -3.38347833324156
B         1.56461442559889    0.61769329726346    1.85670946802932
O         2.92470386326773    0.56527332986611    2.13817586425349
C         3.36255959678514    1.88785597095066    2.50844958682826
C         4.53230065309652    1.79258990322208    3.47867604605184
H         4.27655607990994    1.17144180357397    4.33260971859505
H         5.38780843058365    1.34600052666609    2.97295172036436
H         4.81527230020263    2.78301876965647    3.83285856743226
C         3.79818919753750    2.57378259971822    1.20944442068918
H         4.19921620180899    3.56939713881763    1.39398209366018
H         4.56285139343093    1.96264782579165    0.73293490694553
H         2.95000801181315    2.62633566945088    0.52818036669550
C         2.05248245858444    2.50541923050733    3.08885286472920
O         1.03993731753538    1.80927353257759    2.33514913877025
C         1.89320762251333    4.00728769495750    2.88812858655333
H         1.86775158031946    4.25140751524463    1.82987879705489
H         0.95604840763142    4.33594959822351    3.33557941434485
H         2.71354840664389    4.54297996561302    3.36496378017407
C         1.83175592371824    2.14046383064261    4.56086549766426
H         1.93529313300795    1.06583087936976    4.70466037948032
H         2.53228459686885    2.65987378677551    5.21129754759383
H         0.81777486951730    2.41831080321662    4.84750972361328
B         2.27820000000000   -1.33090000000001    0.17410000000000
O         2.90147835751904   -2.56087419122111    0.39280306990042
C         4.26566003945571   -2.48289386874757   -0.07773946216862
C         5.11037007859564   -2.05780534448543    1.12772832519386
H         4.75440956550762   -1.09751068488191    1.49883211253840
H         4.97977166556868   -2.79464067588127    1.91949746241036
H         6.16791271787770   -1.99752415967314    0.87569706360809
C         4.72033638106553   -3.84501722854472   -0.58748605596018
H         4.75050347138532   -4.54960189562037    0.24232991034901
H         5.71791493615800   -3.77310339403679   -1.01992777541365
H         4.03468122946349   -4.23253022230298   -1.33614694450669
C         4.16593605215632   -1.35989227948246   -1.15782069147150
O         3.07307503788035   -0.56373782626746   -0.66195776170560
C         5.40902640470952   -0.49134359102454   -1.31538306961676
H         6.26524967872113   -1.09698157714490   -1.61115426895918
H         5.23063307068948    0.25956489747898   -2.08380472696151
H         5.63694929688881    0.02355525001504   -0.38658938234794
C         3.72910339441685   -1.89929442445987   -2.52578576458482
H         2.83721253986359   -2.51502457252872   -2.41747751594101
H         3.47189822233428   -1.05774205821625   -3.16758085620019
H         4.51945802894301   -2.47599989573912   -3.00332455741956
H        -3.38351950018796   -3.98915358532754   -2.57928025852443
H        -5.19957923960270    1.50330927326540    1.29668925862361
C         0.23589999999999   -1.68140000000000    2.96030000000001
C        -0.98054140178820   -2.15456527191951    3.45183420887588
C         1.32021173316994   -1.76628786207526    3.84431634671409
C        -1.05254078827069   -2.63099612914021    4.75126699265498
H        -1.86671866285316   -2.18842295520871    2.83358278913982
C         1.17087700202626   -2.32802332968832    5.10207113870184
H         2.30034146728534   -1.45744381118233    3.51141754601035
N        -0.00890100408446   -2.75119150591071    5.55883651572367
H        -1.98796159615090   -2.99516388032614    5.16028069197021
C         2.36875527757388   -2.57562662414777    5.99318127245914
N         2.66911473252570   -1.45571632117911    6.85322760180787
H         3.24551490852572   -2.77063092408741    5.37025706770859
H         2.16042005545150   -3.44977336307593    6.61674279940130
C         3.63054217192803   -0.52060208113568    6.63679124817992
C         2.01777149925173   -1.15413592722871    8.00641904551669
C         3.59989524253843    0.38495459063584    7.66355580857308
H         4.27627093130628   -0.58031329088674    5.78157588024316
C         2.57047983384376   -0.01918098403521    8.53621827125356
H         1.21465793497333   -1.77161901811015    8.35916919533975
H         4.24157340868569    1.23780670602871    7.78279723242202
H         2.27809848798411    0.46532013734071    9.44893857956166
106
 energy: -152.893409724438 gnorm: 0.037858692872 xtb: 6.4.0 (f63f532)
N        -0.95297390612541   -2.09198335643909   -0.26363445936322
C        -2.22900025228495   -1.68413521989341   -0.36930120378627
C        -3.12996582668483   -2.35608961540024   -1.20335750515070
C        -2.70793048483349   -3.45538903753893   -1.91962001143181
C        -1.38847322336851   -3.87425640382701   -1.78527961959602
C        -0.55744158191014   -3.15864783978324   -0.95017207319080
H         0.47515432337033   -3.44197415890628   -0.80879141352810
H        -1.01799514628827   -4.73429261962974   -2.31804179775915
H        -4.14954952509330   -2.02267451799553   -1.29794800250632
C        -2.59677265580719   -0.51547192212821    0.42759657543275
N        -1.60728649915178    0.06135455888057    1.13934110940590
C        -1.89259059062566    1.12601465110962    1.88310628965821
C        -3.15627458656374    1.67388400032703    1.97526128221881
C        -4.18757771079512    1.08955904691900    1.24949069977022
C        -3.90109092365228   -0.01016082585488    0.46859871535275
H        -4.68986606629410   -0.47612410558009   -0.09718708821947
H        -3.33212056290362    2.53208197176227    2.60291523432147
H        -1.05512721911378    1.55083364779775    2.41279734708619
Ir        0.42150000000000   -0.81650000000000    0.91330000000000
H         0.87260000000000   -2.23030000000000    1.54050000000000
B         0.49380215643786    0.43521072823064   -0.76852959172588
O         0.15490041840080   -0.02552730383396   -2.03208960078065
C         0.00469598887915    1.09387418513058   -2.92318001146098
C         0.48900832277359    0.73898165006424   -4.32523634875637
H         1.50443050801989    0.35905655482469   -4.30493753513806
H         0.44410153989515    1.61752235880601   -4.96385627121672
H        -0.15351711819106   -0.03091152476787   -4.74441635506956
C        -1.49772424587478    1.40516179935905   -2.96904247247431
H        -1.71763963546024    2.21418302413537   -3.65901745418416
H        -2.02683543720408    0.51038227431399   -3.29016836839492
H        -1.84732470003715    1.66386973727353   -1.97170215603616
C         0.82301280306080    2.20673912614830   -2.19908144424795
O         0.75862308016272    1.78419561841321   -0.82631995090932
C         2.30287386957085    2.19633602549672   -2.59706143644069
H         2.70519091426818    1.19914068759456   -2.44050536537247
H         2.44063534648480    2.51049234276569   -3.62773672145058
H         2.84475600866586    2.87617113249092   -1.94423045635551
C         0.26816591677872    3.62095371814658   -2.33525652327454
H        -0.73101523510449    3.69566956074959   -1.91951368035550
H         0.91267575292514    4.30377613118945   -1.78833427799084
H         0.25093206591017    3.91657637291092   -3.38089047293119
B         1.56730001642030    0.62389787796044    1.86542987954675
O         2.92322452662892    0.57586737429295    2.12878319378867
C         3.36051478357338    1.89048147868224    2.51038119017993
C         4.52859042132855    1.79850662023493    3.48321620633473
H         4.27434767526781    1.18019000705802    4.33650868282844
H         5.38122938931336    1.35499543016738    2.97596251712848
H         4.80306509804168    2.79027333019022    3.82987974091396
C         3.79936217271269    2.58543883389161    1.21765189630305
H         4.19653874051181    3.57739943195378    1.40967410251732
H         4.56383347617673    1.97729841906820    0.74171750377805
H         2.94984374589721    2.63171945592269    0.54070246807782
C         2.05233503078983    2.50580083200689    3.09021669569773
O         1.04156158788921    1.80190702568115    2.34970903447877
C         1.89380404114138    4.00732482310723    2.88751915684725
H         1.86048395663223    4.24984352402263    1.83129925002983
H         0.96168084777020    4.33204643774892    3.34150051279694
H         2.71769373453344    4.53441028465886    3.35976085270057
C         1.84210138801987    2.14993012304468    4.56642263066296
H         1.94950533843259    1.07718211880950    4.70784404743362
H         2.54473393285290    2.67319991511094    5.20613634299766
H         0.83010817367319    2.42399179225491    4.85499533953281
B         2.27820000000000   -1.33090000000002    0.17410000000001
O         2.90435987131868   -2.54799646788349    0.40287664156632
C         4.25921483370492   -2.48008330387307   -0.07801557440440
C         5.11546662198972   -2.05870916112208    1.12019700084799
H         4.75443641910124   -1.10161924216757    1.48897153299179
H         4.98665616402798   -2.79515246371162    1.90902150404697
H         6.16719604318795   -1.99865561079093    0.85874131712206
C         4.71247954042324   -3.84184214795155   -0.59086229966811
H         4.74563366717822   -4.54016077612589    0.24031736700375
H         5.70585190392440   -3.76052462406183   -1.02260134998510
H         4.02658461247158   -4.23107427523577   -1.33489039662847
C         4.16086606201150   -1.35941046003746   -1.15645315395054
O         3.05990230621909   -0.57319974426393   -0.67064358957134
C         5.40483627375674   -0.49171773301188   -1.30980037114941
H         6.25362867190730   -1.10437061659289   -1.59980584821169
H         5.22769555320046    0.25224902300219   -2.08133678942270
H         5.62930246033041    0.02578805387119   -0.38431660433700
C         3.73921518227093   -1.90249332130687   -2.52824434672413
H         2.84862444834124   -2.51594396245566   -2.41941492050790
H         3.48554113137211   -1.06283565958624   -3.17047373487178
H         4.53622987571896   -2.47445772066351   -2.99272022258977
H        -3.38942404254084   -3.98101735323175   -2.56996692925431
H        -5.19058818691322    1.48518525841431    1.29440742679240
C         0.23589999999996   -1.68140000000000    2.96030000000004
C        -0.98493113923823   -2.14450068237722    3.45277816870292
C         1.31843276556249   -1.76734211290635    3.84812338955495
C        -1.06010010538988   -2.61507793907264    4.75524471318287
H        -1.87084943666713   -2.17496626083706    2.83466263432021
C         1.16120588691892   -2.32348445891181    5.10631195816325
H         2.29943441830744   -1.46328469175202    3.51617107613385
N        -0.01951073442727   -2.73731407862636    5.56118760402306
H        -1.99848633286898   -2.97132827395618    5.16436983835725
C         2.35830402189719   -2.57461172186392    6.00086835390407
N         2.66191114329237   -1.45551890892321    6.85618759858891
H         3.23309499911387   -2.77591747169790    5.37794468259262
H         2.14412992210232   -3.44642585994140    6.62500652345018
C         3.62614519971689   -0.52624330777294    6.63777243046202
C         2.01185478220028   -1.14940850868624    8.00681039231672
C         3.59994385965503    0.38144607861515    7.66225844847918
H         4.27080703481619   -0.58984022651513    5.78329609999176
C         2.56886376493494   -0.01620365459122    8.53518697986404
H         1.20657623073733   -1.76176005217816    8.35991215986043
H         4.24494235911670    1.23059947883635    7.77972426487350
H         2.27864360805646    0.47043264871900    9.44602332411292
106
 energy: -152.894051003951 gnorm: 0.037296703642 xtb: 6.4.0 (f63f532)
N        -0.94322489009886   -2.08884990850042   -0.27563634555141
C        -2.22023929529805   -1.68160355442687   -0.37476833275165
C        -3.12688271763740   -2.35416262064086   -1.20336568931950
C        -2.71081246983227   -3.45392819678982   -1.92092728287013
C        -1.38924183458039   -3.87225922500787   -1.79401803301794
C        -0.55351171242279   -3.15485151256355   -0.96486144404803
H         0.47931724243897   -3.44151904576740   -0.82969810650988
H        -1.02313954156944   -4.73332175417739   -2.32705998374796
H        -4.14662192263950   -2.01972250009443   -1.29092540425431
C        -2.58605922518962   -0.51663450956245    0.42230971598941
N        -1.59708943214936    0.06045950335305    1.13504909139862
C        -1.88597637262253    1.12390095760509    1.87806485782645
C        -3.15051487974036    1.66855244539234    1.97313961252311
C        -4.18240121965759    1.08200070585921    1.24743013778880
C        -3.89209734488108   -0.01406501208232    0.46428225881197
H        -4.67840250672427   -0.48125281762885   -0.10353655282765
H        -3.32800487219564    2.52390907358769    2.60304500452474
H        -1.05195264243377    1.55103545178069    2.41180631858233
Ir        0.42150000000000   -0.81650000000000    0.91330000000000
H         0.87260000000000   -2.23030000000000    1.54050000000000
B         0.47969352976464    0.44967702870050   -0.74912229754354
O         0.13264366998302   -0.01667900524047   -2.00802143930033
C        -0.00512066414682    1.09437203009815   -2.90586117939580
C         0.48653197013262    0.72930257561764   -4.30356346201155
H         1.49951023110744    0.34375776600513   -4.27697124620426
H         0.44860803795085    1.60755869695521   -4.94232711813132
H        -0.15888106782868   -0.03791316050432   -4.72269386536898
C        -1.50639787850316    1.41345260507248   -2.96792019831889
H        -1.71184379420167    2.22031229714396   -3.66421424997815
H        -2.03620026669274    0.51997728742933   -3.29074391124410
H        -1.86429669784464    1.67852497104680   -1.97538995055700
C         0.81384452583675    2.20975765635464   -2.18605258106479
O         0.75844598068415    1.79350936239489   -0.81423614799597
C         2.29211114370670    2.20157137210556   -2.59331534785703
H         2.69706872267607    1.20651049852763   -2.43070274226980
H         2.42047827161986    2.50794911613448   -3.62710198858740
H         2.83492636914821    2.88872538638042   -1.94924695607817
C         0.25695295966672    3.62338373092412   -2.32925468952991
H        -0.73997810764633    3.70143980380729   -1.90922750441373
H         0.90492955303174    4.31058314898548   -1.79219913070006
H         0.23477859031667    3.90686468933494   -3.37785746541019
B         1.56841938342121    0.62613437782619    1.87226252218152
O         2.92434157090931    0.58245990470583    2.12121469846774
C         3.35935413815070    1.89344134215417    2.51167123609644
C         4.52729158503458    1.80292880136749    3.48618941361445
H         4.27434290600389    1.18552808529594    4.34023774696205
H         5.38110971893381    1.36178106267378    2.97950148018101
H         4.79669643532510    2.79674922618523    3.83034347991959
C         3.80019972450973    2.59753554029904    1.22357538901250
H         4.19285851214780    3.58925414359004    1.42311261190549
H         4.56834294342520    1.99439435495154    0.74737309609486
H         2.95178467373685    2.64335553872370    0.54563924301979
C         2.05144760009081    2.50621614400723    3.09442721991234
O         1.03991771447335    1.79544994696369    2.36475510713466
C         1.89033955722396    4.00779462719634    2.88800283317932
H         1.84872770267606    4.24810886066959    1.83164360604330
H         0.96242053034476    4.33347558968746    3.34945707724291
H         2.71921802745332    4.53316668739039    3.35264508425700
C         1.85160523761023    2.15845743386546    4.57487833756363
H         1.96360182053329    1.08678489376473    4.72037091470345
H         2.55726145042926    2.68841671595921    5.20521737473455
H         0.84066386156285    2.43090128029599    4.86763062130024
B         2.27820000000001   -1.33090000000003    0.17410000000002
O         2.90692478714478   -2.54096558990300    0.41316177857987
C         4.25541803888180   -2.47820896735425   -0.07748333454288
C         5.12196446998897   -2.05837673112910    1.11497182975888
H         4.76203369774663   -1.10204426006477    1.48622167346866
H         4.99809455579637   -2.79596062353003    1.90316143231113
H         6.17083353559533   -1.99822166098269    0.84452921066352
C         4.70458975805698   -3.84165961524118   -0.59209038445741
H         4.74192575709297   -4.53846628343504    0.23987186960299
H         5.69544380464746   -3.75747482400279   -1.02804009470736
H         4.01546309934488   -4.23146924127176   -1.33258367007507
C         4.15672292786293   -1.35914899669561   -1.15747511710198
O         3.04976073750375   -0.57824840000115   -0.68066461595643
C         5.40017940768586   -0.48887817209194   -1.30582619225904
H         6.24892320214551   -1.10469330260227   -1.58816564945763
H         5.22675913711347    0.25106001643205   -2.08178353642316
H         5.61928941432325    0.03213497599781   -0.38125199007744
C         3.74816782525712   -1.90600217405988   -2.53271573917157
H         2.85837984021757   -2.52104735152455   -2.42959237794218
H         3.49934073903441   -1.06771191042483   -3.17836961393961
H         4.55190333232152   -2.47621048247876   -2.98659407267004
H        -3.39627179012399   -3.97969756401387   -2.56657658167578
H        -5.18653070750036    1.47350935763023    1.29469482932598
C         0.23589999999993   -1.68140000000000    2.96030000000007
C        -0.98961775323576   -2.13255765138651    3.45268019326536
C         1.31633600616885   -1.76994643715053    3.85073993149819
C        -1.07112538026225   -2.59516498337716    4.75824651978742
H        -1.87486214067847   -2.15896813273771    2.83359973585171
C         1.15143836673027   -2.31938910099008    5.11082431218058
H         2.29937535754741   -1.47258251763809    3.51911628701482
N        -0.03301119484248   -2.72122394097361    5.56568444081442
H        -2.01396891719460   -2.94032930351783    5.16722399756758
C         2.34565987579637   -2.57519741095590    6.00927202617144
N         2.65369882617706   -1.45539521643826    6.86024248544666
H         3.21947626394104   -2.78465430319818    5.38772484145688
H         2.12389123991735   -3.44374634096599    6.63537996665214
C         3.62269068504236   -0.53219107521341    6.63940196105083
C         2.00441861154675   -1.14266752841344    8.00910462309536
C         3.60077856776561    0.37891183870926    7.66126543852694
H         4.26714144644272   -0.60116474877554    5.78512807586923
C         2.56706600863167   -0.01071341443887    8.53482042548477
H         1.19521229787643   -1.74929720963258    8.36333622034935
H         4.25032714185767    1.22481242003556    7.77652212436065
H         2.27878238909692    0.47990196744803    9.44406353854457
106
 energy: -152.894818591923 gnorm: 0.037642056893 xtb: 6.4.0 (f63f532)
N        -0.92969675460872   -2.08843952937544   -0.29140201390395
C        -2.20852686589505   -1.68092508532360   -0.38243776706233
C        -3.12165429889978   -2.35392491093279   -1.20545040409820
C        -2.71264218933759   -3.45416160032298   -1.92568595350362
C        -1.38799204506375   -3.87108353825781   -1.81010227648795
C        -0.54547059141671   -3.15256463865100   -0.98741327913595
H         0.48955466803003   -3.43974467414595   -0.86513605490548
H        -1.02688061031752   -4.73242846147336   -2.34643016818950
H        -4.14211632432299   -2.01825404496046   -1.28335382087340
C        -2.57213424294260   -0.51899889308904    0.41628126920386
N        -1.58388638458032    0.05656017290024    1.13426502811770
C        -1.87635331174379    1.12044649826207    1.87710435520827
C        -3.14211227518535    1.66228746908079    1.97282002879076
C        -4.17417479598721    1.07442992272701    1.24518676882893
C        -3.87933572091322   -0.01671757728149    0.45762717761028
H        -4.66252472032904   -0.48443318044160   -0.11452439267883
H        -3.32152628786139    2.51517620531217    2.60547703877862
H        -1.04532327621706    1.55219094066719    2.41288581684581