14
 energy: -36.061082386128 gnorm: 0.000093606165 xtb: 6.4.1 (1a32961)
N         0.27064403156611   -1.15194320123289   -0.00096826092846
C         1.59139175807437   -1.18347480652246    0.00111525286309
C         2.37950862346109   -0.04052217733643    0.00152158466220
C         1.72469775563355    1.18561784820557   -0.00017006472509
C         2.48955435862793    2.48383326870608   -0.00141263989199
F         3.81860260532528    2.31774994211086    0.00855764171012
F         2.20919230240129    3.23636502226503   -1.08197720727390
F         2.19440851160051    3.24806074981418    1.06677438159137
C         0.33742265965220    1.23759405494737   -0.00219136464767
C        -0.33283219464777    0.01741763799375   -0.00253335940086
Cl       -2.05108215967115   -0.00969576677350   -0.00536481239262
H         2.02988937866471   -2.17028755318944    0.00223808964035
H         3.45493212196254   -0.10075257232296    0.00312185944287
H        -0.19669975265067    2.17303755333484   -0.00348110064941
