14
 energy: -36.058113754305 gnorm: 0.059691375510 xtb: 6.4.1 (1a32961)
N         0.24910000000000   -1.18452000000000   -0.00114000000000
C         1.59700000000000   -1.18442000000000    0.00115000000000
C         2.36401000000000   -0.03061000000000    0.00290000000000
C         1.71609000000000    1.20965000000000    0.00095000000000
C         2.50260000000000    2.49263000000000   -0.00119000000000
F         3.85055000000000    2.29749000000000    0.00667000000000
F         2.24194000000000    3.25930000000000   -1.09444000000000
F         2.23080000000000    3.27148000000000    1.08044000000000
C         0.31520000000000    1.23167000000000   -0.00183000000000
C        -0.35501000000000    0.02020000000000   -0.00238000000000
Cl       -2.06814000000000   -0.03812000000000   -0.00580000000000
H         2.06146000000000   -2.16686000000000    0.00108000000000
H         3.44812000000000   -0.10147000000000    0.00428000000000
H        -0.23409000000000    2.16658000000000   -0.00546000000000
14
 energy: -36.060559894708 gnorm: 0.026154016175 xtb: 6.4.1 (1a32961)
N         0.26302830835550   -1.16623358386024   -0.00116896754665
C         1.59138192044379   -1.17844183158475    0.00109430085109
C         2.36790280445995   -0.03153698701492    0.00216946083295
C         1.71916693958126    1.19948086627144    0.00024809512405
C         2.49374597055286    2.48636225074306   -0.00132719812172
F         3.83133345638273    2.29948199099456    0.00694106138001
F         2.22904806578483    3.24823491605619   -1.08671468066474
F         2.21712679063610    3.25966223722709    1.07272155281223
C         0.32830820399619    1.23309727652910   -0.00235995333721
C        -0.33910351094858    0.01772721842154   -0.00264455087471
Cl       -2.05272197468012   -0.02957344875083   -0.00555566767552
H         2.04132604640339   -2.16142162970067    0.00187799194356
H         3.44554338249708   -0.09906125905319    0.00437608310696
H        -0.21645640346498    2.16522198372162   -0.00442752783029
14
 energy: -36.061047257817 gnorm: 0.004507383415 xtb: 6.4.1 (1a32961)
N         0.27104026277095   -1.15319163722328   -0.00113361579000
C         1.58981358456773   -1.17946708517336    0.00122751384335
C         2.37595013159810   -0.03589415867710    0.00189087663976
C         1.72264337819254    1.19013444940785   -0.00005005539188
C         2.48945866602258    2.48341608112963   -0.00140249403956
F         3.81956314731784    2.30857313324120    0.00726838444271
F         2.21611042458662    3.23946639299281   -1.08114014295615
F         2.20341498430600    3.25049330009234    1.06701468793156
C         0.33543505234714    1.23623170329223   -0.00236184450378
C        -0.33242977760622    0.01649435836143   -0.00268158799942
Cl       -2.04830781089658   -0.01743025017726   -0.00565778769176
H         2.03048349532101   -2.16483613323247    0.00233662132354
H         3.45070606855457   -0.09951441113781    0.00386281303423
H        -0.20425160708230    2.16852425710378   -0.00394336884258
14
 energy: -36.061076247563 gnorm: 0.001935717735 xtb: 6.4.1 (1a32961)
N         0.27105307110105   -1.15208676344002   -0.00104356605171
C         1.59083574421089   -1.18198237821379    0.00119487427861
C         2.37848289690747   -0.03847635821974    0.00171908197640
C         1.72380302042132    1.18745829862818   -0.00016933035057
C         2.48932363271529    2.48359076042128   -0.00141754300481
F         3.81885482857065    2.31366845983761    0.00754857519711
F         2.21179912441252    3.23776345300067   -1.08101134772290
F         2.19858014816035    3.24870057216709    1.06676715806143
C         0.33641075831843    1.23725701420883   -0.00237236343852
C        -0.33296701075274    0.01707629664331   -0.00267259191677
Cl       -2.05000565283368   -0.01243288658389   -0.00560711993609
H         2.03053178498398   -2.16816377615004    0.00250847207337
H         3.45354325456678   -0.10042061864744    0.00361564576919
H        -0.20061560078231    2.17104792634796   -0.00382994493473
14
 energy: -36.061081150322 gnorm: 0.000919914614 xtb: 6.4.1 (1a32961)
N         0.27057847698112   -1.15177932326477   -0.00090367757754
C         1.59163396287629   -1.18425250746118    0.00122340265259
C         2.38012621700563   -0.04113369556869    0.00157725995893
C         1.72495677257182    1.18492858827028   -0.00023151532499
C         2.48948114988084    2.48400475746765   -0.00142654909074
F         3.81867023069188    2.31901119637747    0.00810497811958
F         2.20777574510250    3.23626086886983   -1.08166216272324
F         2.19363340907784    3.24739694372598    1.06700358737265
C         0.33763089035655    1.23785313710149   -0.00229524645636
C        -0.33321629452474    0.01757595406509   -0.00258072665589
Cl       -2.05153657195274   -0.00823554795426   -0.00553453204647
H         2.03028214950616   -2.17111523047923    0.00244962144785
H         3.45565291326294   -0.10110985741660    0.00319282755153
H        -0.19603905083611    2.17359471626691   -0.00368726722789
14
 energy: -36.061082330356 gnorm: 0.000251941923 xtb: 6.4.1 (1a32961)
N         0.27062911570536   -1.15195412312597   -0.00095974387996
C         1.59136318115389   -1.18353117111425    0.00111186811490
C         2.37951152144233   -0.04053351694971    0.00154003141910
C         1.72469953499629    1.18556821563188   -0.00019687713227
C         2.48952079340713    2.48389793130849   -0.00141956427460
F         3.81866771730559    2.31779762147579    0.00824140158892
F         2.20892913253885    3.23652699520457   -1.08179766873808
F         2.19460783747983    3.24787780370910    1.06695282292670
C         0.33744394247691    1.23759556641277   -0.00224900433948
C        -0.33290510228518    0.01741428347068   -0.00255291283112
Cl       -2.05104727889579   -0.00957606356646   -0.00546464677151
H         2.02999772750080   -2.17028113078730    0.00241858161468
H         3.45493924811983   -0.10081818434281    0.00322198682299
H        -0.19672737094583    2.17301577267322   -0.00361627452027
14
 energy: -36.061082385641 gnorm: 0.000094913149 xtb: 6.4.1 (1a32961)
N         0.27064403156611   -1.15194320123289   -0.00096826092846
C         1.59139175807437   -1.18347480652246    0.00111525286309
C         2.37950862346109   -0.04052217733643    0.00152158466220
C         1.72469775563355    1.18561784820557   -0.00017006472509
C         2.48955435862793    2.48383326870608   -0.00141263989199
F         3.81860260532528    2.31774994211086    0.00855764171012
F         2.20919230240129    3.23636502226503   -1.08197720727390
F         2.19440851160051    3.24806074981418    1.06677438159137
C         0.33742265965220    1.23759405494737   -0.00219136464767
C        -0.33283219464777    0.01741763799375   -0.00253335940086
Cl       -2.05108215967115   -0.00969576677350   -0.00536481239262
H         2.02988937866471   -2.17028755318944    0.00223808964035
H         3.45493212196254   -0.10075257232296    0.00312185944287
H        -0.19669975265067    2.17303755333484   -0.00348110064941
