17
 energy: -27.201779817019 gnorm: 0.037260342475 xtb: 6.4.1 (1a32961)
O        -0.04023000000000    0.98725000000000    0.01276000000000
C         0.68378000000000   -0.16371000000000    0.00113000000000
C         2.15231000000000   -0.01501000000000   -0.00027000000000
C        -0.15941000000000   -1.25289000000000   -0.00694000000000
C        -1.47724000000000   -0.73366000000000    0.00027000000000
C        -1.36284000000000    0.64423000000000    0.01224000000000
C        -2.37323000000000    1.68110000000000    0.02341000000000
O        -3.58048000000000    1.43291000000000    0.02498000000000
C        -1.90836000000000    3.11891000000000    0.03300000000000
H         2.44442000000000    1.04007000000000    0.01066000000000
H         2.58188000000000   -0.47638000000000   -0.89434000000000
H         2.58559000000000   -0.49574000000000    0.88178000000000
H         0.13856000000000   -2.29223000000000   -0.01704000000000
H        -2.40679000000000   -1.28729000000000   -0.00285000000000
H        -0.82107000000000    3.21543000000000    0.03120000000000
H        -2.29165000000000    3.61014000000000    0.93194000000000
H        -2.29576000000000    3.62328000000000   -0.85684000000000
17
 energy: -27.203281010721 gnorm: 0.016099195482 xtb: 6.4.1 (1a32961)
O        -0.04054392332342    0.99310902302943    0.01220627880355
C         0.68079960070218   -0.14909533535998    0.00091458875163
C         2.15609502013600   -0.02257731254190   -0.00047164797064
C        -0.16075202860004   -1.23399940355168   -0.00660038259907
C        -1.47205286370618   -0.72324747785122    0.00060626059736
C        -1.36041070663681    0.65176803885150    0.01193773066958
C        -2.37648049591798    1.68237972544417    0.02302540585131
O        -3.57224114242583    1.41339034179430    0.02450589567608
C        -1.90234022828418    3.11433205467141    0.03316988231768
H         2.43285103717908    1.03044076438847    0.01028067596289
H         2.58218835530737   -0.48972441989854   -0.88861911169694
H         2.58516679404511   -0.50856778668015    0.87606801068854
H         0.13200195821648   -2.26582269308600   -0.01644101447196
H        -2.39219960152830   -1.27568092486510   -0.00252933262612
H        -0.81708688253236    3.19131543836318    0.03151442005068
H        -2.30093270189461    3.60758461158329    0.91849717016420
H        -2.30458219073651    3.62080535570881   -0.84297483016877
17
 energy: -27.203548004069 gnorm: 0.004431250602 xtb: 6.4.1 (1a32961)
O        -0.03738556652307    0.99744735241566    0.01160377884136
C         0.68047253435003   -0.13822485100810    0.00061171023566
C         2.16065318123176   -0.02762342088239   -0.00065914794113
C        -0.15955475701744   -1.22398250514502   -0.00641453909488
C        -1.46786521188645   -0.71653951215785    0.00061916831136
C        -1.35602151960249    0.65847388710232    0.01165141922084
C        -2.38019099812917    1.68446614154122    0.02311020158975
O        -3.56872718135344    1.39640790703620    0.02402484539443
C        -1.90432580615442    3.11451437072164    0.03340419481992
H         2.43834149057590    1.02226997541361    0.00983617012932
H         2.57872940641183   -0.50181573981301   -0.88657973418483
H         2.58102326301778   -0.52013562897293    0.87411032838331
H         0.13071764877916   -2.25349485549501   -0.01584920005822
H        -2.38502280264583   -1.26754149310776   -0.00223027405611
H        -0.82186226288005    3.17883949162131    0.03207120543354
H        -2.30826526759606    3.61006166153617    0.91344685846385
H        -2.31123615057806    3.62328721919395   -0.83766698548819
17
 energy: -27.203581807662 gnorm: 0.001704524045 xtb: 6.4.1 (1a32961)
O        -0.03460629213061    0.99956465593657    0.01123200450177
C         0.68150936905969   -0.13449035611851    0.00048236181873
C         2.16321668447908   -0.03059728112455   -0.00078297630745
C        -0.15805177125413   -1.22172734683318   -0.00632010234262
C        -1.46604291457977   -0.71367792570931    0.00080359192401
C        -1.35328741574863    0.66194588622994    0.01138194532302
C        -2.38179852693592    1.68552404468056    0.02275170914707
O        -3.56815124511656    1.38925187077606    0.02364173956424
C        -1.90891515177660    3.11621065958670    0.03360130538632
H         2.44777004198191    1.01736054608823    0.00951808635575
H         2.57682456976879   -0.50825997331926   -0.88677306167319
H         2.57889497761753   -0.52627980914549    0.87427998209831
H         0.13198139575785   -2.25165219917054   -0.01558692226955
H        -2.38417233161109   -1.26355903342766   -0.00184423645039
H        -0.82715262713853    3.17936389539443    0.03264124218480
H        -2.31308911772640    3.61196062962150    0.91379096270977
H        -2.31544964464661    3.62547173653452   -0.83772763197059
17
 energy: -27.203594402817 gnorm: 0.001645955999 xtb: 6.4.1 (1a32961)
O        -0.03010756037282    1.00282524114638    0.01077145292104
C         0.68381004587036   -0.13073027423867    0.00030147360791
C         2.16664584650945   -0.03604877580261   -0.00105014931968
C        -0.15570043880568   -1.21943378521031   -0.00607215529669
C        -1.46345132749981   -0.70954352986255    0.00072241898792
C        -1.34923677405994    0.66672199061460    0.01115707618908
C        -2.38304298109133    1.68648946903595    0.02284312179080
O        -3.56720285347558    1.38119681044730    0.02301503089900
C        -1.91727128879933    3.11907458402980    0.03392814864756
H         2.46333878193580    1.00907986460630    0.00892635647725
H         2.57493532265655   -0.51791303531197   -0.88744647221728
H         2.57690313228758   -0.53545851410328    0.87467755101248
H         0.13441813529833   -2.25003841679696   -0.01495012241188
H        -2.38383788818479   -1.25720693606663   -0.00158548232088
H        -0.83560459682842    3.18573868421559    0.03388298249212
H        -2.32213906026613    3.61409475375477    0.91487422694801
H        -2.32297649517425    3.62756186954231   -0.83890545840676
17
 energy: -27.203597514592 gnorm: 0.000461547289 xtb: 6.4.1 (1a32961)
O        -0.02984283563433    1.00310010743710    0.01077535301036
C         0.68421921409200   -0.13128798268000    0.00036422520827
C         2.16655177940652   -0.03684492608559   -0.00109868671951
C        -0.15572122555619   -1.21927573742675   -0.00607228739058
C        -1.46331359162468   -0.70932957937640    0.00107674874975
C        -1.34907598456159    0.66668545412091    0.01106844848130
C        -2.38229101032172    1.68617376099138    0.02230919131575
O        -3.56676099434954    1.38218249525033    0.02282156898853
C        -1.91769477192112    3.11913769014598    0.03398489763883
H         2.46339722121739    1.00817449979970    0.00884902226667
H         2.57536896517250   -0.51845228910666   -0.88740754438405
H         2.57750563407396   -0.53599062527232    0.87446603861571
H         0.13449140277261   -2.24962610316085   -0.01504378300924
H        -2.38373469081574   -1.25661106131058   -0.00126467796659
H        -0.83577213614252    3.18814489093485    0.03427727855962
H        -2.32375554292638    3.61325591069137    0.91471411966953
H        -2.32409143288116    3.62697349504752   -0.83872991303436
17
 energy: -27.203598031753 gnorm: 0.000233083297 xtb: 6.4.1 (1a32961)
O        -0.02920971821022    1.00362385214349    0.01075638760434
C         0.68472808676279   -0.13120434260444    0.00029218209028
C         2.16691921094924   -0.03787923274617   -0.00126152856778
C        -0.15556582797260   -1.21875020884808   -0.00589494553682
C        -1.46295737025827   -0.70874262985427    0.00066894400458
C        -1.34849879780550    0.66716067473130    0.01123732645861
C        -2.38181468207176    1.68608283533713    0.02302033904531
O        -3.56629275723247    1.38189085807026    0.02265399419423
C        -1.91853384821964    3.11949961760043    0.03409894112536
H         2.46445207104693    1.00690234441369    0.00857152471444
H         2.57545909620749   -0.51997554996180   -0.88745133613981
H         2.57771846944607   -0.53736081343937    0.87420309873751
H         0.13473343694248   -2.24896147893304   -0.01459161893993
H        -2.38352573549704   -1.25551589552784   -0.00156439780857
H        -0.83664701508318    3.18999198146835    0.03505867335090
H        -2.32616842965808    3.61326905871969    0.91417929832988
H        -2.32531618934625    3.62637892943066   -0.83888688266253
