9
 energy: -17.877093129943 gnorm: 0.036412851477 xtb: 6.4.1 (1a32961)
C         0.35026000000000    1.01434000000000   -0.01115000000000
S         1.96211000000000    0.43573000000000   -0.00371000000000
C         1.43432000000000   -1.19330000000000    0.00302000000000
C         0.05948000000000   -1.29112000000000   -0.00171000000000
C        -0.56511000000000   -0.01280000000000   -0.00761000000000
Cl       -2.26131000000000    0.18838000000000   -0.00968000000000
H         0.15483000000000    2.07752000000000   -0.01772000000000
H         2.15676000000000   -1.99849000000000    0.00967000000000
H        -0.46876000000000   -2.23646000000000    0.00038000000000
9
 energy: -17.878094983854 gnorm: 0.013638053599 xtb: 6.4.1 (1a32961)
C         0.34666129096716    1.01129465466061   -0.01041393453938
S         1.95846820283381    0.43500909566514   -0.00417121702650
C         1.42668510616053   -1.19442914718509    0.00206653452047
C         0.06907276249326   -1.29081903929687    0.00021414968754
C        -0.55086827091907   -0.01660694868138   -0.00824392992525
Cl       -2.25170036907317    0.19248548005494   -0.01286608794400
H         0.14575126250994    2.06537898246536   -0.01587425082560
H         2.14224943593191   -1.99360496538004    0.00747171680718
H        -0.46373942090437   -2.22490811230267    0.00330701924552
9
 energy: -17.878233348640 gnorm: 0.004783350598 xtb: 6.4.1 (1a32961)
C         0.34447571815827    1.01051781577856   -0.01048132748086
S         1.95849916869763    0.43574889779820   -0.00454951731559
C         1.42512262418973   -1.19629566029722    0.00247235704778
C         0.07320275669157   -1.29374902961458   -0.00077693936544
C        -0.54424872669223   -0.01917591733418   -0.00682061747549
Cl       -2.25060712129170    0.19750077258509   -0.01225871679208
H         0.14102728903460    2.06120771495576   -0.01657768794266
H         2.14213588123666   -1.99074908067929    0.00839474460018
H        -0.46702759002454   -2.22120551319236    0.00208770472417
9
 energy: -17.878263893653 gnorm: 0.001840750022 xtb: 6.4.1 (1a32961)
C         0.34357688984093    1.01073715983685   -0.01051711744914
S         1.95949994734020    0.43630363716744   -0.00399371614212
C         1.42570096638807   -1.19780730074035    0.00176020657946
C         0.07415715688557   -1.29604943997876    0.00036672299134
C        -0.54217221612605   -0.02040157516153   -0.00830374780360
Cl       -2.25242913603995    0.19981531404873   -0.01366055671013
H         0.13966504081927    2.06112558189865   -0.01533950901784
H         2.14597921311517   -1.98955274905175    0.00689767030284
H        -0.47139786222321   -2.22037062801928    0.00428004724919
9
 energy: -17.878267744441 gnorm: 0.001062445332 xtb: 6.4.1 (1a32961)
C         0.34314145723794    1.01138572494212   -0.01026642268096
S         1.96068854817695    0.43647767964149   -0.00537402096411
C         1.42656772797038   -1.19925768093032    0.00309285938432
C         0.07411314707290   -1.29768367380324   -0.00139932355639
C        -0.54146637056686   -0.02096998320445   -0.00588639283353
Cl       -2.25534699223031    0.20009936767574   -0.01163599287423
H         0.14002996756344    2.06252932919701   -0.01713701723701
H         2.15055283541797   -1.98878018831365    0.00940835709398
H        -0.47570032064240   -2.22000057520470    0.00068795366794
9
 energy: -17.878270556440 gnorm: 0.000422731648 xtb: 6.4.1 (1a32961)
C         0.34336753544574    1.01141454973978   -0.01069198564614
S         1.96041011756064    0.43622150344216   -0.00350567680907
C         1.42630305975480   -1.19896088760163    0.00163982682037
C         0.07380715047834   -1.29693201799721    0.00020723038914
C        -0.54197097661866   -0.02053322351334   -0.00840150763180
Cl       -2.25512097914423    0.19892801385810   -0.01322540698287
H         0.14079913116860    2.06272254611674   -0.01565118189107
H         2.14958117749834   -1.98900963319390    0.00700225422682
H        -0.47459621614357   -2.22005085085070    0.00411644752461
9
 energy: -17.878270951723 gnorm: 0.000273708526 xtb: 6.4.1 (1a32961)
C         0.34341209725849    1.01134934928190   -0.01030931718716
S         1.96017378179518    0.43611910208167   -0.00482509325029
C         1.42604527459976   -1.19875683487455    0.00237372599085
C         0.07379148674555   -1.29654724092918   -0.00024497008942
C        -0.54203963627675   -0.02032866505480   -0.00749614147585
Cl       -2.25474945085710    0.19850453103971   -0.01289758681853
H         0.14103454439470    2.06253086561345   -0.01590368221060
H         2.14874750626507   -1.98905310055394    0.00797465254811
H        -0.47383560392491   -2.22001800660427    0.00281841249289
