      -----------------------------------------------------------      
     |                   =====================                   |     
     |                           x T B                           |     
     |                   =====================                   |     
     |                         S. Grimme                         |     
     |          Mulliken Center for Theoretical Chemistry        |     
     |                    University of Bonn                     |     
      -----------------------------------------------------------      

   * xtb version 6.4.1 (1a32961) compiled by 'knkr256@seskscpg007.prim.scp' on 2021-10-19

   xtb is free software: you can redistribute it and/or modify it under
   the terms of the GNU Lesser General Public License as published by
   the Free Software Foundation, either version 3 of the License, or
   (at your option) any later version.
   
   xtb is distributed in the hope that it will be useful,
   but WITHOUT ANY WARRANTY; without even the implied warranty of
   MERCHANTABILITY or FITNESS FOR A PARTICULAR PURPOSE.  See the
   GNU Lesser General Public License for more details.
   
   Cite this work as:
   * C. Bannwarth, E. Caldeweyher, S. Ehlert, A. Hansen, P. Pracht,
     J. Seibert, S. Spicher, S. Grimme, WIREs Comput. Mol. Sci., 2020, 11,
     e01493. DOI: 10.1002/wcms.1493
   
   for GFN2-xTB:
   * C. Bannwarth, S. Ehlert and S. Grimme., J. Chem. Theory Comput., 2019,
     15, 1652-1671. DOI: 10.1021/acs.jctc.8b01176
   for GFN1-xTB:
   * S. Grimme, C. Bannwarth, P. Shushkov, J. Chem. Theory Comput., 2017,
     13, 1989-2009. DOI: 10.1021/acs.jctc.7b00118
   for GFN0-xTB:
   * P. Pracht, E. Caldeweyher, S. Ehlert, S. Grimme, ChemRxiv, 2019, preprint.
     DOI: 10.26434/chemrxiv.8326202.v1
   for GFN-FF:
   * S. Spicher and S. Grimme, Angew. Chem. Int. Ed., 2020, 59, 15665-15673.
     DOI: 10.1002/anie.202004239
   
   for ALPB and GBSA implicit solvation:
   * S. Ehlert, M. Stahn, S. Spicher, S. Grimme, J. Chem. Theory Comput.,
     2021, 17, 4250-4261. DOI: 10.1021/acs.jctc.1c00471
   
   for DFT-D4:
   * E. Caldeweyher, C. Bannwarth and S. Grimme, J. Chem. Phys., 2017,
     147, 034112. DOI: 10.1063/1.4993215
   * E. Caldeweyher, S. Ehlert, A. Hansen, H. Neugebauer, S. Spicher,
     C. Bannwarth and S. Grimme, J. Chem. Phys., 2019, 150, 154122.
     DOI: 10.1063/1.5090222
   * E. Caldeweyher, J.-M. Mewes, S. Ehlert and S. Grimme, Phys. Chem. Chem. Phys.
     2020, 22, 8499-8512. DOI: 10.1039/D0CP00502A
   
   for sTDA-xTB:
   * S. Grimme and C. Bannwarth, J. Chem. Phys., 2016, 145, 054103.
     DOI: 10.1063/1.4959605
   
   in the mass-spec context:
   * V. Asgeirsson, C. Bauer and S. Grimme, Chem. Sci., 2017, 8, 4879.
     DOI: 10.1039/c7sc00601b
   * J. Koopman and S. Grimme, ACS Omega 2019, 4, 12, 15120-15133.
     DOI: 10.1021/acsomega.9b02011
   
   for metadynamics refer to:
   * S. Grimme, J. Chem. Theory Comput., 2019, 155, 2847-2862
     DOI: 10.1021/acs.jctc.9b00143
   
   for SPH calculations refer to:
   * S. Spicher and S. Grimme, J. Chem. Theory Comput., 2021, 17, 1701-1714
     DOI: 10.1021/acs.jctc.0c01306
   
   with help from (in alphabetical order)
   P. Atkinson, C. Bannwarth, F. Bohle, G. Brandenburg, E. Caldeweyher
   M. Checinski, S. Dohm, S. Ehlert, S. Ehrlich, I. Gerasimov, J. Koopman
   C. Lavigne, S. Lehtola, F. März, M. Müller, F. Musil, H. Neugebauer
   J. Pisarek, C. Plett, P. Pracht, J. Seibert, P. Shushkov, S. Spicher
   M. Stahn, M. Steiner, T. Strunk, J. Stückrath, T. Rose, and J. Unsleber
   
 * started run on 2022/01/14 at 15:21:41.901     

           -------------------------------------------------
          |                Calculation Setup                |
           -------------------------------------------------

          program call               : xtb xtbopt.xyz --sp --alpb thf -P 6
          hostname                   : seskscpg007.prim.scp
          coordinate file            : xtbopt.xyz
          omp threads                :                     6
          number of atoms            :                   118
          number of electrons        :                   326
          charge                     :                     0
          spin                       :                   0.0
          first test random number   :      0.36193403776940

   ID    Z sym.   atoms
    1    7 N      1, 11, 101
    2    6 C      2-6, 10, 12-15, 23, 24, 28, 32, 34, 38, 44, 45, 49, 53, 55,
                  59, 65, 66, 70, 74, 76, 80, 86-91, 93, 100, 102, 104-106,
                  111-113, 115
    3    1 H      7-9, 16-18, 20, 25-27, 29-31, 35-37, 39-41, 46-48, 50-52,
                  56-58, 60-62, 67-69, 71-73, 77-79, 81-85, 92, 94, 99, 103,
                  107-110, 114, 116-118
    4   77 Ir     19
    5    5 B      21, 42, 63, 98
    6    8 O      22, 33, 43, 54, 64, 75
    7    9 F      95-97

molecular fragmentation (1/2 indicates fragments):
111111111111111111111111111111111111111111111111111111111111111111111111
1111111111111222222222222222222222222222222222
# atoms in fragment 1/2:    85    33
 fragment masses (1/2) :      730.32      286.08
CMA distance (Bohr)    :  10.789
constraining FC (au)   :  0.0500

           -------------------------------------------------
          |                 G F N 2 - x T B                 |
           -------------------------------------------------

        Reference                      10.1021/acs.jctc.8b01176
      * Hamiltonian:
        H0-scaling (s, p, d)           1.850000    2.230000    2.230000
        zeta-weighting                 0.500000
      * Dispersion:
        s8                             2.700000
        a1                             0.520000
        a2                             5.000000
        s9                             5.000000
      * Repulsion:
        kExp                           1.500000    1.000000
        rExp                           1.000000
      * Coulomb:
        alpha                          2.000000
        third order                    shell-resolved
        anisotropic                    true
        a3                             3.000000
        a5                             4.000000
        cn-shift                       1.200000
        cn-exp                         4.000000
        max-rad                        5.000000

      * Solvation model:               ALPB
        Solvent                        thf
        Parameter file                 internal GFN2-xTB/ALPB
        Dielectric constant                7.6000E+00
        Reference state                gsolv [1 M gas/solution]
        Free energy shift                  5.3248E-03 Eh       3.3414E+00 kcal/mol
        Temperature                        2.9815E+02 K
        Density                            8.8300E-01 kg/L
        Solvent mass                       7.2106E+01 g/mol
        Interaction kernel             P16
        Born radius scaling (c1)           1.7311E+00
        Born radii integrator          GBOBC
        Born offset                        0.0000E+00 a0       0.0000E+00 AA
        H-bond correction              true
        Ion screening                  false
        Surface tension                    1.0000E-05 Eh       1.5569E+01 dyn/cm
        Grid points                               230 per atom
q/qsh data taken from xtbrestart
CAMM data taken from xtbrestart

          ...................................................
          :                      SETUP                      :
          :.................................................:
          :  # basis functions                 307          :
          :  # atomic orbitals                 306          :
          :  # shells                          180          :
          :  # electrons                       326          :
          :  max. iterations                   250          :
          :  Hamiltonian                  GFN2-xTB          :
          :  restarted?                       true          :
          :  GBSA solvation                   true          :
          :  PC potential                    false          :
          :  electronic temp.          300.0000000     K    :
          :  accuracy                    1.0000000          :
          :  -> integral cutoff          0.2500000E+02      :
          :  -> integral neglect         0.1000000E-07      :
          :  -> SCF convergence          0.1000000E-05 Eh   :
          :  -> wf. convergence          0.1000000E-03 e    :
          :  Broyden damping             0.4000000          :
          ...................................................

 iter      E             dE          RMSdq      gap      omega  full diag
   1   -182.1344584 -0.182134E+03  0.179E-05    0.96       0.0  T
   2   -182.1344584  0.272280E-10  0.204E-05    0.96     451.9  T
   3   -182.1344584 -0.283080E-10  0.135E-05    0.96     682.2  T

   *** convergence criteria satisfied after 3 iterations ***

         #    Occupation            Energy/Eh            Energy/eV
      -------------------------------------------------------------
         1        2.0000           -0.8704636             -23.6865
       ...           ...                  ...                  ...
       157        2.0000           -0.3667631              -9.9801
       158        2.0000           -0.3519863              -9.5780
       159        2.0000           -0.3361195              -9.1463
       160        2.0000           -0.3282611              -8.9324
       161        2.0000           -0.3220808              -8.7643
       162        2.0000           -0.3152679              -8.5789
       163        2.0000           -0.3108807              -8.4595 (HOMO)
       164                         -0.2754943              -7.4966 (LUMO)
       165                         -0.2512446              -6.8367
       166                         -0.2475864              -6.7372
       167                         -0.2451572              -6.6711
       168                         -0.2313069              -6.2942
       ...                                ...                  ...
       306                          3.7311841             101.5307
      -------------------------------------------------------------
                  HL-Gap            0.0353864 Eh            0.9629 eV
             Fermi-level           -0.2931828 Eh           -7.9779 eV

 SCC (total)                   0 d,  0 h,  0 min,  0.126 sec
 SCC setup                      ...        0 min,  0.003 sec (  2.327%)
 Dispersion                     ...        0 min,  0.003 sec (  2.694%)
 classical contributions        ...        0 min,  0.000 sec (  0.158%)
 integral evaluation            ...        0 min,  0.014 sec ( 10.922%)
 iterations                     ...        0 min,  0.049 sec ( 39.333%)
 molecular gradient             ...        0 min,  0.055 sec ( 43.718%)
 printout                       ...        0 min,  0.001 sec (  0.800%)

         :::::::::::::::::::::::::::::::::::::::::::::::::::::
         ::                     SUMMARY                     ::
         :::::::::::::::::::::::::::::::::::::::::::::::::::::
         :: total energy            -179.838553803950 Eh    ::
         :: total w/o Gsasa/hb      -179.793010488807 Eh    ::
         :: gradient norm              0.027878665078 Eh/a0 ::
         :: HOMO-LUMO gap              0.962913891265 eV    ::
         ::.................................................::
         :: SCC energy              -182.134458424384 Eh    ::
         :: -> isotropic ES            0.302640221757 Eh    ::
         :: -> anisotropic ES          0.006073871673 Eh    ::
         :: -> anisotropic XC          0.043287817084 Eh    ::
         :: -> dispersion             -0.170412070857 Eh    ::
         :: -> Gsolv                  -0.059854756756 Eh    ::
         ::    -> Gelec               -0.014311441613 Eh    ::
         ::    -> Gsasa               -0.048300496378 Eh    ::
         ::    -> Ghb                 -0.002567634210 Eh    ::
         ::    -> Gshift               0.005324815444 Eh    ::
         :: repulsion energy           2.285926774815 Eh    ::
         :: add. restraining           0.000000000000 Eh    ::
         :: total charge               0.000000000161 e     ::
         :::::::::::::::::::::::::::::::::::::::::::::::::::::

           -------------------------------------------------
          |                Property Printout                |
           -------------------------------------------------

    * Orbital Energies and Occupations

         #    Occupation            Energy/Eh            Energy/eV
      -------------------------------------------------------------
         1        2.0000           -0.8704636             -23.6865
       ...           ...                  ...                  ...
       151        2.0000           -0.3895151             -10.5992
       152        2.0000           -0.3890701             -10.5871
       153        2.0000           -0.3856774             -10.4948
       154        2.0000           -0.3838678             -10.4456
       155        2.0000           -0.3823642             -10.4047
       156        2.0000           -0.3773738             -10.2689
       157        2.0000           -0.3667631              -9.9801
       158        2.0000           -0.3519863              -9.5780
       159        2.0000           -0.3361195              -9.1463
       160        2.0000           -0.3282611              -8.9324
       161        2.0000           -0.3220808              -8.7643
       162        2.0000           -0.3152679              -8.5789
       163        2.0000           -0.3108807              -8.4595 (HOMO)
       164                         -0.2754943              -7.4966 (LUMO)
       165                         -0.2512446              -6.8367
       166                         -0.2475864              -6.7372
       167                         -0.2451572              -6.6711
       168                         -0.2313069              -6.2942
       169                         -0.2170692              -5.9068
       170                         -0.2068972              -5.6300
       171                         -0.2038611              -5.5473
       172                         -0.1898820              -5.1670
       173                         -0.1813946              -4.9360
       174                         -0.1592585              -4.3336
       ...                                ...                  ...
       306                          3.7311841             101.5307
      -------------------------------------------------------------
                  HL-Gap            0.0353864 Eh            0.9629 eV
             Fermi-level           -0.2931828 Eh           -7.9779 eV

     #   Z          covCN         q      C6AA      α(0)
     1   7 N        2.550    -0.120    23.634     7.220
     2   6 C        2.956     0.083    26.159     8.389
     3   6 C        2.919    -0.042    29.036     8.836
     4   6 C        2.924    -0.021    28.541     8.761
     5   6 C        2.915    -0.043    29.078     8.843
     6   6 C        2.894     0.048    26.919     8.507
     7   1 H        0.926     0.053     2.281     2.362
     8   1 H        0.926     0.058     2.222     2.331
     9   1 H        0.926     0.046     2.376     2.410
    10   6 C        2.954     0.077    26.285     8.409
    11   7 N        2.557    -0.132    23.890     7.259
    12   6 C        2.891     0.043    27.029     8.524
    13   6 C        2.916    -0.043    29.080     8.843
    14   6 C        2.923    -0.023    28.590     8.768
    15   6 C        2.919    -0.044    29.083     8.844
    16   1 H        0.926     0.045     2.381     2.413
    17   1 H        0.926     0.054     2.266     2.354
    18   1 H        0.926     0.078     2.001     2.212
    19  77 Ir       5.933    -0.155   388.127    36.432
    20   1 H        0.977     0.099     1.790     2.091
    21   5 B        2.618     0.408    16.021     6.774
    22   8 O        1.638    -0.412    21.089     6.199
    23   6 C        3.833     0.131    18.435     6.109
    24   6 C        3.755    -0.121    22.876     6.820
    25   1 H        0.925     0.054     2.271     2.356
    26   1 H        0.925     0.046     2.368     2.407
    27   1 H        0.925     0.050     2.320     2.382
    28   6 C        3.755    -0.109    22.650     6.786
    29   1 H        0.925     0.049     2.332     2.388
    30   1 H        0.925     0.040     2.443     2.444
    31   1 H        0.925     0.027     2.625     2.534
    32   6 C        3.837     0.131    18.434     6.108
    33   8 O        1.637    -0.400    20.860     6.165
    34   6 C        3.755    -0.124    22.928     6.828
    35   1 H        0.925     0.053     2.279     2.361
    36   1 H        0.925     0.047     2.353     2.399
    37   1 H        0.925     0.052     2.290     2.367
    38   6 C        3.754    -0.121    22.869     6.819
    39   1 H        0.925     0.047     2.359     2.402
    40   1 H        0.925     0.055     2.256     2.349
    41   1 H        0.925     0.046     2.365     2.405
    42   5 B        2.615     0.397    16.174     6.809
    43   8 O        1.636    -0.381    20.497     6.111
    44   6 C        3.834     0.127    18.497     6.119
    45   6 C        3.756    -0.134    23.132     6.858
    46   1 H        0.925     0.059     2.214     2.327
    47   1 H        0.925     0.059     2.208     2.324
    48   1 H        0.925     0.052     2.289     2.366
    49   6 C        3.756    -0.127    22.992     6.837
    50   1 H        0.925     0.047     2.361     2.403
    51   1 H        0.925     0.045     2.378     2.411
    52   1 H        0.925     0.060     2.198     2.318
    53   6 C        3.828     0.127    18.500     6.120
    54   8 O        1.638    -0.380    20.477     6.108
    55   6 C        3.755    -0.125    22.951     6.831
    56   1 H        0.925     0.056     2.251     2.346
    57   1 H        0.925     0.052     2.292     2.367
    58   1 H        0.925     0.049     2.330     2.387
    59   6 C        3.755    -0.127    22.997     6.838
    60   1 H        0.925     0.045     2.385     2.415
    61   1 H        0.925     0.056     2.247     2.344
    62   1 H        0.925     0.052     2.292     2.367
    63   5 B        2.626     0.402    16.047     6.771
    64   8 O        1.637    -0.376    20.406     6.098
    65   6 C        3.833     0.125    18.535     6.125
    66   6 C        3.755    -0.133    23.105     6.854
    67   1 H        0.925     0.062     2.178     2.308
    68   1 H        0.925     0.054     2.271     2.357
    69   1 H        0.925     0.053     2.286     2.365
    70   6 C        3.755    -0.131    23.074     6.849
    71   1 H        0.925     0.063     2.169     2.303
    72   1 H        0.925     0.052     2.295     2.369
    73   1 H        0.925     0.052     2.291     2.367
    74   6 C        3.830     0.127    18.497     6.119
    75   8 O        1.636    -0.379    20.458     6.105
    76   6 C        3.755    -0.126    22.974     6.834
    77   1 H        0.925     0.053     2.287     2.365
    78   1 H        0.925     0.054     2.267     2.355
    79   1 H        0.925     0.057     2.230     2.335
    80   6 C        3.755    -0.122    22.904     6.824
    81   1 H        0.925     0.040     2.450     2.448
    82   1 H        0.925     0.050     2.326     2.385
    83   1 H        0.925     0.056     2.246     2.344
    84   1 H        0.926     0.055     2.264     2.353
    85   1 H        0.926     0.052     2.300     2.372
    86   6 C        2.820    -0.034    28.826     8.797
    87   6 C        2.979    -0.048    29.179     8.861
    88   6 C        2.934    -0.047    29.169     8.857
    89   6 C        2.924    -0.037    28.916     8.818
    90   6 C        3.342     0.487    17.197     6.555
    91   6 C        2.880    -0.059    29.470     8.900
    92   1 H        0.926     0.065     2.144     2.290
    93   6 C        2.924    -0.042    29.053     8.839
    94   1 H        0.925     0.032     2.557     2.501
    95   9 F        0.793    -0.240    11.655     4.033
    96   9 F        0.790    -0.243    11.687     4.038
    97   9 F        0.792    -0.216    11.404     3.989
    98   5 B        2.673     0.218    18.261     7.185
    99   1 H        0.926     0.043     2.410     2.428
   100   6 C        2.824    -0.115    30.912     9.110
   101   7 N        2.666    -0.077    22.744     7.083
   102   6 C        2.907    -0.033    28.827     8.804
   103   1 H        0.925     0.018     2.763     2.600
   104   6 C        3.702    -0.069    21.989     6.705
   105   6 C        2.925     0.057    26.721     8.477
   106   6 C        2.983    -0.009    28.246     8.718
   107   1 H        0.925     0.027     2.631     2.537
   108   1 H        0.925     0.070     2.088     2.260
   109   1 H        0.924     0.065     2.139     2.287
   110   1 H        0.924     0.061     2.185     2.312
   111   6 C        2.919    -0.060    29.487     8.905
   112   6 C        2.925    -0.039    28.974     8.827
   113   6 C        2.919    -0.037    28.915     8.818
   114   1 H        0.926     0.049     2.334     2.389
   115   6 C        2.914    -0.044    29.099     8.846
   116   1 H        0.926     0.033     2.544     2.494
   117   1 H        0.926     0.036     2.503     2.474
   118   1 H        0.926     0.031     2.575     2.509

 Mol. C6AA /au·bohr⁶  :     155009.373313
 Mol. C8AA /au·bohr⁸  :    4088138.107901
 Mol. α(0) /au        :        612.063228


Wiberg/Mayer (AO) data.
largest (>0.10) Wiberg bond orders for each atom

 ---------------------------------------------------------------------------
     #   Z sym  total        # sym  WBO       # sym  WBO       # sym  WBO
 ---------------------------------------------------------------------------
     1   7 N    3.396 --     6 C    1.395     2 C    1.318    19 Ir   0.419
     2   6 C    3.978 --     3 C    1.351     1 N    1.318    10 C    1.087
     3   6 C    3.988 --     4 C    1.480     2 C    1.351     9 H    0.961
                             6 C    0.106
     4   6 C    3.985 --     3 C    1.480     5 C    1.389    84 H    0.969
     5   6 C    3.978 --     6 C    1.455     4 C    1.389     8 H    0.968
     6   6 C    3.977 --     5 C    1.455     1 N    1.395     7 H    0.957
                             3 C    0.106
     7   1 H    0.997 --     6 C    0.957
     8   1 H    0.996 --     5 C    0.968
     9   1 H    0.997 --     3 C    0.961
    10   6 C    3.978 --    15 C    1.359    11 N    1.307     2 C    1.087
    11   7 N    3.402 --    12 C    1.383    10 C    1.307    19 Ir   0.427
    12   6 C    3.973 --    13 C    1.457    11 N    1.383    18 H    0.948
                            15 C    0.105
    13   6 C    3.981 --    12 C    1.457    14 C    1.389    17 H    0.969
    14   6 C    3.982 --    15 C    1.474    13 C    1.389    85 H    0.969
    15   6 C    3.989 --    14 C    1.474    10 C    1.359    16 H    0.961
                            12 C    0.105
    16   1 H    0.997 --    15 C    0.961
    17   1 H    0.996 --    13 C    0.969
    18   1 H    0.994 --    12 C    0.948
    19  77 Ir   5.152 --    42 B    0.864    63 B    0.858    21 B    0.711
                            86 C    0.604    20 H    0.552    11 N    0.427
                             1 N    0.419
    20   1 H    0.988 --    19 Ir   0.552    86 C    0.331
    21   5 B    3.274 --    33 O    1.115    22 O    1.092    19 Ir   0.711
    22   8 O    2.190 --    21 B    1.092    23 C    0.941
    23   6 C    3.943 --    24 C    0.996    28 C    0.990    22 O    0.941
                            32 C    0.941
    24   6 C    3.994 --    23 C    0.996    26 H    0.983    27 H    0.983
                            25 H    0.983
    25   1 H    0.997 --    24 C    0.983
    26   1 H    0.997 --    24 C    0.983
    27   1 H    0.997 --    24 C    0.983
    28   6 C    3.996 --    23 C    0.990    31 H    0.985    30 H    0.984
                            29 H    0.984
    29   1 H    0.997 --    28 C    0.984
    30   1 H    0.998 --    28 C    0.984
    31   1 H    0.999 --    28 C    0.985
    32   6 C    3.938 --    38 C    0.997    34 C    0.991    23 C    0.941
                            33 O    0.936
    33   8 O    2.208 --    21 B    1.115    32 C    0.936
    34   6 C    3.993 --    32 C    0.991    36 H    0.983    35 H    0.981
                            37 H    0.981
    35   1 H    0.997 --    34 C    0.981
    36   1 H    0.997 --    34 C    0.983
    37   1 H    0.997 --    34 C    0.981
    38   6 C    3.994 --    32 C    0.997    41 H    0.983    39 H    0.983
                            40 H    0.982
    39   1 H    0.998 --    38 C    0.983
    40   1 H    0.997 --    38 C    0.982
    41   1 H    0.997 --    38 C    0.983
    42   5 B    3.342 --    43 O    1.118    54 O    1.117    19 Ir   0.864
    43   8 O    2.224 --    42 B    1.118    44 C    0.935
    44   6 C    3.936 --    45 C    0.997    49 C    0.991    53 C    0.938
                            43 O    0.935
    45   6 C    3.991 --    44 C    0.997    48 H    0.983    47 H    0.982
                            46 H    0.978
    46   1 H    0.996 --    45 C    0.978
    47   1 H    0.996 --    45 C    0.982
    48   1 H    0.996 --    45 C    0.983
    49   6 C    3.992 --    44 C    0.991    50 H    0.983    51 H    0.982
                            52 H    0.973
    50   1 H    0.997 --    49 C    0.983
    51   1 H    0.998 --    49 C    0.982
    52   1 H    0.996 --    49 C    0.973
    53   6 C    3.936 --    55 C    0.996    59 C    0.992    44 C    0.938
                            54 O    0.933
    54   8 O    2.236 --    42 B    1.117    53 C    0.933
    55   6 C    3.993 --    53 C    0.996    58 H    0.983    57 H    0.983
                            56 H    0.982
    56   1 H    0.997 --    55 C    0.982
    57   1 H    0.997 --    55 C    0.983
    58   1 H    0.996 --    55 C    0.983
    59   6 C    3.994 --    53 C    0.992    61 H    0.983    62 H    0.983
                            60 H    0.981
    60   1 H    0.998 --    59 C    0.981
    61   1 H    0.996 --    59 C    0.983
    62   1 H    0.997 --    59 C    0.983
    63   5 B    3.368 --    75 O    1.127    64 O    1.111    19 Ir   0.858
    64   8 O    2.231 --    63 B    1.111    65 C    0.936
    65   6 C    3.936 --    70 C    0.997    66 C    0.991    74 C    0.939
                            64 O    0.936
    66   6 C    3.992 --    65 C    0.991    69 H    0.983    68 H    0.982
                            67 H    0.978
    67   1 H    0.996 --    66 C    0.978
    68   1 H    0.997 --    66 C    0.982
    69   1 H    0.996 --    66 C    0.983
    70   6 C    3.991 --    65 C    0.997    72 H    0.983    73 H    0.982
                            71 H    0.982
    71   1 H    0.996 --    70 C    0.982
    72   1 H    0.996 --    70 C    0.983
    73   1 H    0.997 --    70 C    0.982
    74   6 C    3.933 --    76 C    0.996    80 C    0.992    65 C    0.939
                            75 O    0.932
    75   8 O    2.237 --    63 B    1.127    74 C    0.932
    76   6 C    3.992 --    74 C    0.996    77 H    0.982    78 H    0.982
                            79 H    0.981
    77   1 H    0.996 --    76 C    0.982
    78   1 H    0.997 --    76 C    0.982
    79   1 H    0.997 --    76 C    0.981
    80   6 C    3.995 --    74 C    0.992    81 H    0.984    82 H    0.983
                            83 H    0.983
    81   1 H    0.998 --    80 C    0.984
    82   1 H    0.997 --    80 C    0.983
    83   1 H    0.996 --    80 C    0.983
    84   1 H    0.996 --     4 C    0.969
    85   1 H    0.996 --    14 C    0.969
    86   6 C    3.930 --    87 C    1.366    88 C    1.354    19 Ir   0.604
                            20 H    0.331
    87   6 C    3.935 --    86 C    1.366    89 C    1.352    90 C    0.955
    88   6 C    3.981 --    91 C    1.439    86 C    1.354    92 H    0.956
                            89 C    0.102
    89   6 C    3.983 --    93 C    1.491    87 C    1.352    94 H    0.966
                            88 C    0.102
    90   6 C    3.780 --    87 C    0.955    97 F    0.945    95 F    0.920
                            96 F    0.915
    91   6 C    3.940 --    88 C    1.439    93 C    1.351    98 B    0.972
    92   1 H    0.995 --    88 C    0.956
    93   6 C    3.983 --    89 C    1.491    91 C    1.351    99 H    0.968
    94   1 H    0.997 --    89 C    0.966
    95   9 F    1.038 --    90 C    0.920
    96   9 F    1.040 --    90 C    0.915
    97   9 F    1.078 --    90 C    0.945
    98   5 B    3.530 --   101 N    1.243   100 C    1.108    91 C    0.972
    99   1 H    0.996 --    93 C    0.968
   100   6 C    3.968 --   102 C    1.703    98 B    1.108   103 H    0.973
   101   7 N    3.602 --    98 B    1.243   105 C    1.180   104 C    1.004
   102   6 C    3.989 --   100 C    1.703   106 C    1.193   107 H    0.965
   103   1 H    0.999 --   100 C    0.973
   104   6 C    3.969 --   101 N    1.004   110 H    0.972   109 H    0.971
                           108 H    0.970
   105   6 C    3.973 --   111 C    1.324   106 C    1.271   101 N    1.180
   106   6 C    3.987 --   112 C    1.332   105 C    1.271   102 C    1.193
   107   1 H    0.998 --   102 C    0.965
   108   1 H    0.995 --   104 C    0.970
   109   1 H    0.996 --   104 C    0.971
   110   1 H    0.996 --   104 C    0.972
   111   6 C    3.986 --   113 C    1.497   105 C    1.324   114 H    0.964
                           112 C    0.109
   112   6 C    3.991 --   115 C    1.501   106 C    1.332   116 H    0.968
                           111 C    0.109
   113   6 C    3.991 --   111 C    1.497   115 C    1.373   117 H    0.971
   114   1 H    0.997 --   111 C    0.964
   115   6 C    3.990 --   112 C    1.501   113 C    1.373   118 H    0.971
   116   1 H    0.998 --   112 C    0.968
   117   1 H    0.998 --   113 C    0.971
   118   1 H    0.999 --   115 C    0.971
 ---------------------------------------------------------------------------

Topologies differ in total number of bonds
Writing topology from bond orders to xtbtopo.mol

molecular dipole:
                 x           y           z       tot (Debye)
 q only:        2.952       1.643      -0.910
   full:        1.427       1.732      -1.648       7.078
molecular quadrupole (traceless):
                xx          xy          yy          xz          yz          zz
 q only:       12.187      -9.788     -10.088      27.110      22.626      -2.099
  q+dip:       17.068      -7.690     -11.476      25.716      22.661      -5.592
   full:       12.721      -6.918      -8.371      22.074      22.681      -4.350


           -------------------------------------------------
          | TOTAL ENERGY             -179.838553803950 Eh   |
          | GRADIENT NORM               0.027878665078 Eh/α |
          | HOMO-LUMO GAP               0.962913891265 eV   |
           -------------------------------------------------

------------------------------------------------------------------------
 * finished run on 2022/01/14 at 15:21:42.064     
------------------------------------------------------------------------
 total:
 * wall-time:     0 d,  0 h,  0 min,  0.163 sec
 *  cpu-time:     0 d,  0 h,  0 min,  0.953 sec
 * ratio c/w:     5.852 speedup
 SCF:
 * wall-time:     0 d,  0 h,  0 min,  0.127 sec
 *  cpu-time:     0 d,  0 h,  0 min,  0.759 sec
 * ratio c/w:     5.954 speedup

