118
 energy: -179.809714977089 gnorm: 0.087598593101 xtb: 6.4.1 (1a32961)
N        -0.96510000000050   -2.11529999999949   -0.24089999999923
C        -2.24699999999866   -1.69840000000041   -0.36219999999951
C        -3.14039999999921   -2.36820000000007   -1.21199999999976
C        -2.70219999999876   -3.47560000000073   -1.93049999999798
C        -1.37779999999663   -3.89880000000046   -1.78760000000063
C        -0.54289999999882   -3.18669999999997   -0.93510000000022
H         0.49809999999977   -3.45630000000006   -0.78940000000004
H        -0.99570000000092   -4.76029999999965   -2.32770000000000
H        -4.16500000000061   -2.02889999999993   -1.31830000000023
C        -2.62129999999939   -0.50949999999905    0.44100000000052
N        -1.62599999999943    0.07329999999988    1.16020000000083
C        -1.89679999999953    1.15239999999994    1.91690000000020
C        -3.17230000000046    1.70330000000185    1.99650000000213
C        -4.20510000000025    1.11740000000094    1.26270000000053
C        -3.92609999999866    0.00250000000126    0.47820000000219
H        -4.71959999999975   -0.46419999999916   -0.09520000000045
H        -3.34629999999995    2.57509999999856    2.62070000000099
H        -1.04450000000053    1.57420000000006    2.43690000000042
Ir        0.42150000000002   -0.81650000000010    0.91329999999995
H         0.87260000000001   -2.23030000000002    1.54050000000000
B         0.50670000000019    0.41559999999979   -0.81540000000000
O         0.19500000000027   -0.04699999999948   -2.09149999999882
C         0.00650000000228    1.10039999999889   -2.95430000000022
C         0.49020000000210    0.74739999999948   -4.35779999999967
H         1.51610000000216    0.37380000000012   -4.33699999999986
H         0.44730000000036    1.62239999999921   -5.01670000000003
H        -0.14740000000181   -0.03390000000055   -4.78429999999992
C        -1.50119999999781    1.39559999999928   -2.96669999999881
H        -1.75370000000046    2.21459999999925   -3.64849999999907
H        -2.03200000000043    0.49449999999959   -3.28929999999942
H        -1.85170000000027    1.65210000000057   -1.96220000000001
C         0.84229999999648    2.20670000000043   -2.22040000000101
O         0.75199999999986    1.78260000000028   -0.83690000000035
C         2.32929999999710    2.18620000000051   -2.59899999999965
H         2.74129999999987    1.18500000000088   -2.45750000000015
H         2.48870000000046    2.51300000000008   -3.63179999999978
H         2.87200000000037    2.86269999999986   -1.93200000000079
C         0.28439999999928    3.62289999999860   -2.33660000000013
H        -0.72650000000071    3.69039999999981   -1.92909999999952
H         0.92130000000056    4.31480000000040   -1.77610000000044
H         0.26430000000028    3.94809999999981   -3.38320000000091
B         1.56300000000027    0.60959999999995    1.84840000000002
O         2.92780000000021    0.55230000000009    2.15019999999989
C         3.36329999999954    1.88659999999987    2.50260000000031
C         4.53139999999991    1.78590000000001    3.47740000000082
H         4.27909999999972    1.16090000000047    4.33690000000049
H         5.39389999999961    1.33789999999959    2.97340000000012
H         4.82390000000016    2.77870000000012    3.83820000000006
C         3.79700000000043    2.56849999999990    1.19670000000026
H         4.20020000000002    3.57089999999996    1.37679999999997
H         4.56739999999992    1.95560000000004    0.72109999999996
H         2.95239999999987    2.63260000000000    0.50540000000003
C         2.05039999999913    2.50090000000015    3.09320000000012
O         1.03750000000050    1.81619999999966    2.31909999999975
C         1.89100000000085    4.00449999999945    2.88650000000068
H         1.87289999999993    4.25440000000018    1.82410000000001
H         0.94940000000032    4.34259999999997    3.33169999999994
H         2.71079999999932    4.55149999999974    3.36629999999979
C         1.82470000000039    2.13200000000063    4.56520000000014
H         1.92610000000018    1.05329999999989    4.71319999999997
H         2.52609999999979    2.65280000000026    5.22539999999920
H         0.80630000000216    2.41579999999973    4.84899999999982
B         2.27819999999960   -1.33090000000044    0.17409999999978
O         2.89459999999936   -2.57739999999976    0.38449999999993
C         4.26930000000049   -2.48199999999889   -0.07210000000199
C         5.10900000000068   -2.05380000000002    1.14010000000015
H         4.76350000000012   -1.08740000000005    1.51750000000037
H         4.98049999999976   -2.79470000000025    1.93590000000026
H         6.17420000000007   -1.99290000000002    0.89300000000023
C         4.71950000000025   -3.84660000000043   -0.58470000000256
H         4.75280000000009   -4.56130000000027    0.24420000000077
H         5.72330000000133   -3.78369999999997   -1.02009999999965
H         4.03500000000085   -4.23600000000043   -1.34170000000093
C         4.16440000000189   -1.36219999999894   -1.16299999999915
O         3.08519999999932   -0.55030000000033   -0.65400000000034
C         5.40719999999926   -0.48869999999958   -1.31550000000009
H         6.27320000000039   -1.09010000000048   -1.61530000000026
H         5.23299999999995    0.26930000000089   -2.08589999999891
H         5.64269999999964    0.02649999999892   -0.38239999999906
C         3.71799999999681   -1.89829999999957   -2.53109999999979
H         2.82530000000070   -2.52159999999952   -2.42739999999999
H         3.46089999999992   -1.05250000000047   -3.17550000000038
H         4.50570000000030   -2.48290000000007   -3.01789999999967
H        -3.38499999999961   -4.00130000000012   -2.59309999999929
H        -5.21400000000020    1.52080000000037    1.29960000000019
C         0.23590000000026   -1.68139999999983    2.96029999999972
C        -0.92084876501228   -2.02469261395451    3.67974081264114
C         1.42096265996417   -1.81329556846793    3.72558887845676
C        -0.90142105058794   -2.14166981488736    5.07783298764804
C        -2.24102350072113   -2.43912180548344    3.10910791638392
C         1.50505985865601   -2.14767260146422    5.08401953413165
H         2.34676050291391   -1.71558161744349    3.17635169646258
C         0.28590743620848   -2.19632632209881    5.77641786908817
H        -1.83482094792133   -2.27342016704555    5.60746043177771
F        -2.86847479006241   -3.36692175648259    3.89410864580449
F        -3.17914139083945   -1.45358021752199    2.98531832264667
F        -2.17566543367581   -3.05693128881932    1.90296673071392
B         2.76093859677239   -2.62126182387862    5.95897768352315
H         0.26835670043980   -2.34847521118715    6.84569885805262
C         2.73179265386384   -3.91213338891833    6.74542597650633
N         3.93330016720749   -1.82150719283692    6.19213228414622
C         3.73573171114848   -4.21043568789789    7.62188323246897
H         1.93456827066990   -4.63698393363361    6.64305600846921
C         4.13047135242413   -0.59933812978739    5.43358217140271
C         4.90235159530516   -2.11717007767028    7.12228318138443
C         4.81871399656947   -3.32811430655667    7.85746195703908
H         3.72878920544167   -5.13411337833453    8.18919537348752
H         3.35471234455924   -0.55621663480691    4.66999423628630
H         5.11510056361543   -0.62644563819277    4.94694828778788
H         4.06030382485334    0.26649131498720    6.10817524450751
C         5.97626997486491   -1.24263184261713    7.38714102911424
C         5.81101646802843   -3.61561390020461    8.80847714297083
C         6.92842789262461   -1.55325481143171    8.33754137356532
H         6.07229456984406   -0.30521038582119    6.86487776425922
C         6.85271317356726   -2.74477261472933    9.05151684959622
H         5.74372916162505   -4.54169553977619    9.36325175748433
H         7.73507283536575   -0.85815501284139    8.52568673299961
H         7.60430961901875   -2.97920681638963    9.79173291091524
118
 energy: -179.819875869655 gnorm: 0.051561598525 xtb: 6.4.1 (1a32961)
N        -0.95409254387970   -2.07848457530919   -0.28606643941536
C        -2.23120645857189   -1.66910362659230   -0.39646565968776
C        -3.13208538572865   -2.35608506776289   -1.21805937717768
C        -2.70407671913129   -3.46544255058524   -1.92399368480481
C        -1.38554099956839   -3.88524044714804   -1.78366172172482
C        -0.55245929929796   -3.16152188794088   -0.95238075221498
H         0.47960837062104   -3.44487653179520   -0.79580353445547
H        -1.01053191435235   -4.74983879393703   -2.31278546410823
H        -4.15584139286468   -2.02745896731480   -1.31300812292002
C        -2.60519394111044   -0.49400031833136    0.40884785216868
N        -1.61712145150525    0.08027582281854    1.12900613671103
C        -1.89824252290822    1.14118503425319    1.88969563774053
C        -3.16583996557393    1.68814164822455    1.98167042946166
C        -4.19528227383111    1.10534819724921    1.25317361030445
C        -3.91129391804141    0.00585716421176    0.46301325875768
H        -4.70503758649813   -0.46430048599735   -0.09698101900429
H        -3.34192902684036    2.54797762338732    2.61307301138266
H        -1.05544227608214    1.55613563052757    2.42293347237149
Ir        0.42150000000002   -0.81650000000010    0.91329999999995
H         0.87260000000001   -2.23030000000002    1.54050000000000
B         0.49429708035795    0.42117620676775   -0.79217839225186
O         0.17750552868513   -0.03722686771879   -2.06400269434238
C         0.00960314328276    1.09520940017163   -2.94376166106358
C         0.48817398502685    0.74636107101091   -4.34932105079112
H         1.50746121711134    0.37039837334640   -4.32858786394238
H         0.44244032065519    1.62159098677994   -4.99806949077844
H        -0.15014886994983   -0.03004233659733   -4.76969843069670
C        -1.49510367452533    1.39699683490653   -2.96865604069813
H        -1.73555903481511    2.21002505540536   -3.65210654047567
H        -2.02528362771512    0.49979665406744   -3.28828021702297
H        -1.84216698571376    1.65120853994157   -1.96688759768333
C         0.83189968609654    2.20531383943121   -2.21264031986788
O         0.75611743125803    1.77723200761607   -0.83544554187808
C         2.31481923166014    2.18965967572451   -2.59999913432782
H         2.71974257905017    1.19065404027259   -2.45096995228748
H         2.46656797280205    2.51174792629262   -3.62947811136067
H         2.85678885632708    2.86431208538234   -1.93828029878794
C         0.27961985228147    3.62147632538441   -2.33880936420132
H        -0.72394694062999    3.68984582889952   -1.92698081222365
H         0.91853610028648    4.30559351973617   -1.78181496879089
H         0.26163491169441    3.93492305322251   -3.38273573214948
B         1.56587351189155    0.61683452132888    1.86037450626887
O         2.92654340926100    0.57203113469738    2.14344530318285
C         3.36118709829422    1.90164759481054    2.49666396385079
C         4.54327307430673    1.83858694003155    3.45157502529992
H         4.28917951976831    1.24472945480885    4.31185617524809
H         5.39264802702919    1.37209754486698    2.95397603326006
H         4.82897276881903    2.83246155825864    3.79012338199268
C         3.79302124661940    2.57873902773450    1.19414453817391
H         4.19472430321626    3.57434181600393    1.37707208946744
H         4.55863154534326    1.96427102934493    0.72359594632726
H         2.94471859206090    2.62750915641595    0.51367480837487
C         2.05068252507318    2.51055379866525    3.08566151781881
O         1.03888596337782    1.80901021518612    2.33504033242149
C         1.89029255380377    4.01171935386593    2.88579326533949
H         1.86552237116836    4.25482656600592    1.82756221964120
H         0.95277381581679    4.33978284601163    3.33276412828377
H         2.71090815449233    4.54728111098841    3.36254041637815
C         1.82766493428814    2.14659016613209    4.55844542978852
H         1.91887725309774    1.07115262268943    4.69754160618274
H         2.53050109161768    2.66436915041758    5.20844870847389
H         0.81465204675630    2.42917407773513    4.84299269909231
B         2.27819999999960   -1.33090000000044    0.17409999999978
O         2.90234584947452   -2.56029719250074    0.39424798995170
C         4.26658458756239   -2.48258558704456   -0.07649908257366
C         5.10999915468385   -2.05673885543279    1.13013334335373
H         4.75448410108131   -1.09587103713665    1.50038088861169
H         4.97889333769967   -2.79300461305665    1.92248317564864
H         6.16754416260094   -1.99709732850713    0.87793276783395
C         4.72049552794576   -3.84509321066441   -0.58653913026804
H         4.75017868804089   -4.55004934275933    0.24300072537548
H         5.71795890601942   -3.77427004293993   -1.01953708222157
H         4.03462032404394   -4.23235917399944   -1.33526660057978
C         4.16576171459291   -1.36051187741154   -1.15804275338857
O         3.07391784306810   -0.56357432186007   -0.66084252205917
C         5.40849179366390   -0.49124088091656   -1.31609299490733
H         6.26482912723643   -1.09631781020686   -1.61264336784231
H         5.22947283540643    0.25980536404681   -2.08427207936999
H         5.63652799957577    0.02343002534690   -0.38724232191201
C         3.72705556552056   -1.89956858542495   -2.52596244472005
H         2.83492201459776   -2.51506062589703   -2.41752289171078
H         3.46916738509350   -1.05804007960186   -3.16765402129664
H         4.51610258133037   -2.47682096289847   -3.00509371117743
H        -3.38557410165129   -3.99512347784318   -2.57583344782713
H        -5.20099283645807    1.50174689678151    1.29964880669326
C         0.23590000000026   -1.68139999999983    2.96029999999970
C        -0.92182440227444   -2.02448802976513    3.68040161139089
C         1.42596145366523   -1.81294381273590    3.73013309623992
C        -0.89785502461450   -2.14222829633102    5.07835845600994
C        -2.23988112953521   -2.43467192177575    3.10935240920485
C         1.50678331180640   -2.14452922243782    5.08665797927343
H         2.35169387860097   -1.71598791826402    3.18032324880030
C         0.28568740022989   -2.19610964079747    5.77374385813816
H        -1.83083521790623   -2.27222259473252    5.60868541635548
F        -2.86746323958475   -3.35927608077274    3.89095251077462
F        -3.17229788748791   -1.44959606358676    2.98673540067015
F        -2.17427032677367   -3.04683690906760    1.90826611278931
B         2.76550648859723   -2.61202935657893    5.96007210764750
H         0.26666914235735   -2.34794823348708    6.84226837091487
C         2.72979479888740   -3.91570515717723    6.74642800020407
N         3.92948879999788   -1.82435619134007    6.19162620016303
C         3.72797721872639   -4.21639430384183    7.61838171630898
H         1.93032814173627   -4.63876982583524    6.64123265605542
C         4.12777848954463   -0.60832386619175    5.43690809980225
C         4.89785726345987   -2.12160872873947    7.11946838960342
C         4.81588292568078   -3.33037688906991    7.85395472479557
H         3.72088281345796   -5.14030821021085    8.18522638872289
H         3.35478549122730   -0.56438525699811    4.67663009178262
H         5.10663892513297   -0.63454221054328    4.95139685528949
H         4.05953680888977    0.25406824714735    6.10816014521022
C         5.97199117842371   -1.25162041623624    7.38509884107310
C         5.80759256609975   -3.62042009547006    8.80475080670378
C         6.92204590090972   -1.56187638881167    8.33229366296202
H         6.06977627882653   -0.31470483498682    6.86388242630723
C         6.84695694690747   -2.75346362646666    9.04727911078402
H         5.73912455716530   -4.54611546014041    9.35869343052119
H         7.72933764078133   -0.86800883693127    8.52058612266561
H         7.59843054465954   -2.98819866236865    9.78698593389806
118
 energy: -179.823749105925 gnorm: 0.040040559373 xtb: 6.4.1 (1a32961)
N        -0.94329618477049   -2.05758938395424   -0.31358230920505
C        -2.21599965052747   -1.64762637272385   -0.42240220950554
C        -3.12406884173615   -2.33916527314330   -1.23028930786774
C        -2.70701104240290   -3.45337424346067   -1.92694392704648
C        -1.38964102832688   -3.87268462785826   -1.79006531634662
C        -0.55512525121531   -3.14228445740112   -0.97099307053763
H         0.47372386769789   -3.43244102982336   -0.81640795278664
H        -1.02451680768847   -4.74712966978552   -2.30346710910296
H        -4.14806660015375   -2.01577260516916   -1.31285985967476
C        -2.58683185255171   -0.47946889086291    0.37753399160213
N        -1.60480718572026    0.08474665941409    1.10549615627283
C        -1.89370419519302    1.13432563951073    1.86794294598686
C        -3.15783426902491    1.67876474713506    1.96711070012034
C        -4.18599612746282    1.09787985920970    1.23718715918529
C        -3.89459687941639    0.01325192115205    0.43657484979159
H        -4.68647399517928   -0.46101372922769   -0.11758522760391
H        -3.33747099431161    2.52575469129312    2.60927848720182
H        -1.05852168417785    1.54616722965194    2.41247955787335
Ir        0.42150000000002   -0.81650000000010    0.91329999999995
H         0.87260000000001   -2.23030000000002    1.54050000000000
B         0.50015843836385    0.43058876392161   -0.77017469286403
O         0.16010376593767   -0.02862698386654   -2.03358403702879
C         0.00483937321083    1.09059313446205   -2.92388617724753
C         0.48600093983666    0.73801764845810   -4.32809365708922
H         1.50179851930740    0.35958975247502   -4.31010151832248
H         0.43810848744062    1.61645490113066   -4.96646709266138
H        -0.15605380267670   -0.03265402111237   -4.74623143975501
C        -1.49840031840029    1.39980902810917   -2.96632097896390
H        -1.72190928447991    2.20885910543470   -3.65483373202358
H        -2.02743033229362    0.50468246702656   -3.28649374536222
H        -1.84710800620166    1.65652931363742   -1.96817148869156
C         0.82316399923370    2.20391737583848   -2.20012228935251
O         0.76150685207062    1.77994882530442   -0.82750923440590
C         2.30298852428457    2.19372846923882   -2.59918828967944
H         2.70467380488394    1.19629736984417   -2.44342996627993
H         2.44067168427368    2.50872825843208   -3.62936890694459
H         2.84473986236870    2.87263021001434   -1.94573001307481
C         0.26786841266898    3.61822635248550   -2.33490487591686
H        -0.73140494404969    3.69132530250765   -1.91954179379687
H         0.91162320976368    4.30059469475099   -1.78693088402862
H         0.25045508063809    3.91514166418342   -3.37996422690142
B         1.57193103335462    0.62362227748461    1.87399528792440
O         2.93000886015683    0.59277114288333    2.13870312253343
C         3.35701456159836    1.92209485512099    2.48602168661131
C         4.54638680124460    1.88991273572819    3.43452445540744
H         4.30546249418945    1.32739112891035    4.31760601719411
H         5.38655860717506    1.41522573063821    2.93592825394191
H         4.82613951916467    2.89902541826700    3.72343175941120
C         3.77665812937052    2.59768393751139    1.17921861024318
H         4.17594882871027    3.59029095932491    1.36100276816538
H         4.54201931074839    1.98324155205360    0.71365116961496
H         2.92665784708158    2.63384758564963    0.50387966861475
C         2.04735658091813    2.52297011058073    3.07683520547565
O         1.03973672187712    1.80432450064601    2.34464431359447
C         1.88373574790188    4.02287246363277    2.87662157353994
H         1.85235278168821    4.26449373486622    1.82087466512550
H         0.95116020889861    4.34549340456723    3.33022256383604
H         2.70760762219246    4.54852386380814    3.35017885113544
C         1.83599915241905    2.16728800613953    4.55435818049331
H         1.91919950687848    1.09277395689683    4.68718744601422
H         2.54336106048606    2.68414092084091    5.19401629826283
H         0.82679562172424    2.45413087893047    4.83916558441031
B         2.27819999999959   -1.33090000000043    0.17409999999978
O         2.90563536154773   -2.54645592121132    0.40537561561269
C         4.26029068053599   -2.47970202387515   -0.07619092234566
C         5.11463286494768   -2.05648864597809    1.12312533839851
H         4.75300852463120   -1.09869348655160    1.48921163920090
H         4.98372658465893   -2.79129966592872    1.91291113148178
H         6.16633509034337   -1.99781469696898    0.86228805317860
C         4.71344782061515   -3.84186729480956   -0.58829970751265
H         4.74540569900280   -4.53995698565754    0.24282344800594
H         5.70653139050313   -3.76181105214455   -1.02050739624474
H         4.02720616237593   -4.23059932457155   -1.33208155458827
C         4.16077671702650   -1.36008932735873   -1.15612193319476
O         3.06060055083777   -0.57332704364634   -0.66904555661404
C         5.40414537967446   -0.49185780772295   -1.31215093371373
H         6.25240939836569   -1.10383025187008   -1.60410342580688
H         5.22484733192093    0.25198488010709   -2.08301928365907
H         5.62907635840343    0.02508922195867   -0.38687930148796
C         3.73518478876649   -1.90332912768275   -2.52681454565483
H         2.84407423408614   -2.51561217892108   -2.41598845640202
H         3.47979686762240   -1.06367651622437   -3.16821517129271
H         4.52965760369603   -2.47594316521001   -2.99425321215919
H        -3.39434796346437   -3.99309409835288   -2.55993027691206
H        -5.19323288609842    1.48098137171605    1.29779927020668
C         0.23590000000025   -1.68139999999982    2.96029999999968
C        -0.92256388037919   -2.02284910493952    3.67860899325650
C         1.42924098990373   -1.81257212602284    3.73306161736781
C        -0.89726402092583   -2.14383626758562    5.07726596890266
C        -2.23781403185852   -2.42141365472009    3.09811158586675
C         1.50610164199257   -2.14129187142578    5.08720361775645
H         2.35385009206802   -1.71642727921395    3.18125119831285
C         0.28312196055766   -2.19642802881898    5.77134483050807
H        -1.83090664054310   -2.27199171174798    5.60698048138670
F        -2.87138363301177   -3.34744916362395    3.86766818225263
F        -3.16068463685897   -1.43136552351012    2.97969621714115
F        -2.16659966756663   -3.01498867387552    1.89411534729789
B         2.76749899609999   -2.60179386543503    5.95710216977941
H         0.26359051243023   -2.34823925543260    6.83976996985476
C         2.72210041547693   -3.91628707621126    6.74259327121520
N         3.92403782065372   -1.82289126359484    6.18376541016044
C         3.71558984045783   -4.22221453563049    7.61046457650762
H         1.91879391745355   -4.63468179268358    6.63154814678565
C         4.12739378192934   -0.60663059867839    5.43330404790363
C         4.89172127170496   -2.12727631715251    7.11147056489870
C         4.80886538800387   -3.33440600731199    7.84520025542414
H         3.70968180951522   -5.14687258310249    8.17650637868342
H         3.35958669605854   -0.54727921447446    4.67204425263535
H         5.10211283104699   -0.63035024838915    4.94626527769287
H         4.06421208420835    0.25642224734781    6.09952874167431
C         5.96808687759878   -1.26304982089570    7.37996701283167
C         5.79851113027529   -3.63017983612587    8.79620848153366
C         6.91608270626348   -1.57568134101126    8.32537910512692
H         6.06900989565878   -0.32588919046096    6.86036966160693
C         6.83889620604242   -2.76819152366966    9.04020000158635
H         5.72596791534711   -4.55657864218826    9.34805398898879
H         7.72528233331817   -0.88478136311324    8.51481901757622
H         7.58982360470376   -3.00494747636275    9.77953223576315
118
 energy: -179.826003632774 gnorm: 0.039400908587 xtb: 6.4.1 (1a32961)
N        -0.92885418627583   -2.04019530987925   -0.34434321406380
C        -2.20039825335215   -1.62671430414341   -0.45311546542145
C        -3.11631549221312   -2.32259978443643   -1.24943663819866
C        -2.71032842559335   -3.44812804177432   -1.93321470114593
C        -1.39163961181208   -3.86858089439588   -1.80096619797467
C        -0.54978433892328   -3.12984013385546   -0.99599150955764
H         0.47890249612457   -3.42407988111695   -0.84728799232069
H        -1.03453561684332   -4.75148997229305   -2.30395146877204
H        -4.13998810506077   -1.99772185467355   -1.32502820391583
C        -2.56978948720009   -0.46370866833125    0.34729064306909
N        -1.59106512719064    0.09369552300461    1.08496169926659
C        -1.88622194304667    1.13571532083577    1.85363413785556
C        -3.15186846094038    1.67485534642162    1.95794669403282
C        -4.17880327627037    1.09565992098951    1.22206822723110
C        -3.87984417806871    0.02410223868626    0.40809873799882
H        -4.66749061323634   -0.44850778397336   -0.15257316912273
H        -3.33576588028017    2.51158121936617    2.61081317463581
H        -1.05627655297920    1.54634320268786    2.40714271459165
Ir        0.42150000000002   -0.81650000000010    0.91329999999995
H         0.87260000000001   -2.23030000000002    1.54050000000000
B         0.49078701737514    0.44539865219454   -0.74897475997539
O         0.13988836891365   -0.02063278924430   -2.00646010165147
C        -0.00513197339723    1.08859810586930   -2.90368742248641
C         0.48170855105352    0.72661812946522   -4.30444152234918
H         1.49536880957423    0.34345458453997   -4.28336905089543
H         0.43789108483887    1.60591190865154   -4.94093749326675
H        -0.16399401943917   -0.04109609380172   -4.72167496644473
C        -1.50751307814473    1.40455894664232   -2.96204257867458
H        -1.71624343917067    2.21124841142894   -3.65697765155009
H        -2.03645832432277    0.51036730023325   -3.28401653097396
H        -1.86399426264897    1.66722796619500   -1.96849833380103
C         0.81375636324288    2.20552601609233   -2.18634142515707
O         0.76485432821173    1.78905147702700   -0.81487457378875
C         2.29105797100688    2.19841180197009   -2.59820118827558
H         2.69513884800854    1.20314016558726   -2.43599375125549
H         2.41601932399831    2.50456390554119   -3.63206408723575
H         2.83458153097590    2.88556429370002   -1.95537650943517
C         0.25476377797296    3.61850736576484   -2.32835568185341
H        -0.74200686220044    3.69469632291072   -1.90820683461591
H         0.90235175166722    4.30546246557170   -1.79116977946813
H         0.23208458385139    3.90153271844786   -3.37670161732836
B         1.57577553015143    0.63086084405712    1.88108858331834
O         2.93423985146670    0.61257867456016    2.13360744356484
C         3.35010371799888    1.94619595998700    2.47178326277594
C         4.55086147465796    1.94762038470481    3.41058175038222
H         4.32758458239534    1.42169310852541    4.32492592321489
H         5.38608937235052    1.45993416009559    2.91693398032633
H         4.82786970456513    2.97368981004718    3.64772420768551
C         3.75603183753824    2.61936261601427    1.15755277720388
H         4.14821604758380    3.61567927746606    1.33153216493551
H         4.52335366868113    2.00783041955617    0.69124817491532
H         2.90063228660495    2.64327186827403    0.48903763339973
C         2.03978647275095    2.53872121712322    3.06727399784647
O         1.03498525238837    1.80325801537425    2.35099546938369
C         1.86884573549433    4.03782474539024    2.86244174946797
H         1.82935628321913    4.27834828467465    1.80696090745911
H         0.94061746731984    4.35973879039181    3.32450800571120
H         2.69731923837117    4.56128425329723    3.32939335413063
C         1.84362087101279    2.19361210454644    4.55080185262643
H         1.92397076074493    1.11933367331668    4.68497536267267
H         2.55923193713468    2.71213062894446    5.17878200373373
H         0.83811001108745    2.48668026446051    4.84198918715961
B         2.27819999999958   -1.33090000000042    0.17409999999978
O         2.90846473042883   -2.53773491432014    0.41779159202765
C         4.25566054921842   -2.47678404291981   -0.07465414252545
C         5.12123450164177   -2.05414166384344    1.11799802520674
H         4.76001398196236   -1.09684902228596    1.48497937610156
H         4.99469037347056   -2.78924251105334    1.90765863395069
H         6.16970917399772   -1.99603778251052    0.84748716964712
C         4.70483866614827   -3.84077579689064   -0.58813013864443
H         4.74144545077583   -4.53626743964421    0.24449893695128
H         5.69521036318505   -3.75665007955806   -1.02436170356672
H         4.01557017544608   -4.23094071004399   -1.32801935756243
C         4.15528719307214   -1.36000953498565   -1.15704152128133
O         3.04879974908443   -0.57892167295708   -0.67979353353134
C         5.39825284528592   -0.48953836442098   -1.30903220892128
H         6.24511055814889   -1.10598370369471   -1.59394821238295
H         5.22187337283868    0.24937325988595   -2.08482769875757
H         5.61915943797827    0.03129315749862   -0.38530613995351
C         3.74267191776810   -1.90820234105355   -2.53066025041999
H         2.85243929886647   -2.52164478561311   -2.42353517795754
H         3.49166480581643   -1.07014454764466   -3.17550807734576
H         4.54388372517405   -2.47916661008192   -2.98695954417647
H        -3.40517506405602   -3.99551563017445   -2.55095472993066
H        -5.18903889980324    1.46786816488657    1.29178709176580
C         0.23590000000024   -1.68139999999981    2.96029999999965
C        -0.92374319528952   -2.01900621609784    3.67537600461218
C         1.42982634205820   -1.80978554342844    3.73425338963970
C        -0.90155141147477   -2.14429622814208    5.07435612809971