99
 energy: -139.584354059675 gnorm: 0.073604332203 xtb: 6.4.1 (1a32961)
N        -0.96510000000000   -2.11530000000000   -0.24090000000000
C        -2.24700000000000   -1.69840000000000   -0.36220000000000
C        -3.14040000000000   -2.36820000000000   -1.21200000000000
C        -2.70220000000000   -3.47560000000000   -1.93050000000000
C        -1.37780000000000   -3.89880000000000   -1.78760000000000
C        -0.54290000000000   -3.18670000000000   -0.93510000000000
H         0.49810000000000   -3.45630000000000   -0.78940000000000
H        -0.99570000000000   -4.76030000000000   -2.32770000000000
H        -4.16500000000000   -2.02890000000000   -1.31830000000000
C        -2.62130000000000   -0.50950000000000    0.44100000000000
N        -1.62600000000000    0.07330000000000    1.16020000000000
C        -1.89680000000000    1.15240000000000    1.91690000000000
C        -3.17230000000000    1.70330000000000    1.99650000000000
C        -4.20510000000000    1.11740000000000    1.26270000000000
C        -3.92610000000000    0.00250000000000    0.47820000000000
H        -4.71960000000000   -0.46420000000000   -0.09520000000000
H        -3.34630000000000    2.57510000000000    2.62070000000000
H        -1.04450000000000    1.57420000000000    2.43690000000000
Ir        0.42150000000000   -0.81650000000000    0.91330000000000
H         0.87260000000000   -2.23030000000000    1.54050000000000
B         0.50670000000000    0.41560000000000   -0.81540000000000
O         0.19500000000000   -0.04700000000000   -2.09150000000000
C         0.00650000000000    1.10040000000000   -2.95430000000000
C         0.49020000000000    0.74740000000000   -4.35780000000000
H         1.51610000000000    0.37380000000000   -4.33700000000000
H         0.44730000000000    1.62240000000000   -5.01670000000000
H        -0.14740000000000   -0.03390000000000   -4.78430000000000
C        -1.50120000000000    1.39560000000000   -2.96670000000000
H        -1.75370000000000    2.21460000000000   -3.64850000000000
H        -2.03200000000000    0.49450000000000   -3.28930000000000
H        -1.85170000000000    1.65210000000000   -1.96220000000000
C         0.84230000000000    2.20670000000000   -2.22040000000000
O         0.75200000000000    1.78260000000000   -0.83690000000000
C         2.32930000000000    2.18620000000000   -2.59900000000000
H         2.74130000000000    1.18500000000000   -2.45750000000000
H         2.48870000000000    2.51300000000000   -3.63180000000000
H         2.87200000000000    2.86270000000000   -1.93200000000000
C         0.28440000000000    3.62290000000000   -2.33660000000000
H        -0.72650000000000    3.69040000000000   -1.92910000000000
H         0.92130000000000    4.31480000000000   -1.77610000000000
H         0.26430000000000    3.94810000000000   -3.38320000000000
B         1.56300000000000    0.60960000000000    1.84840000000000
O         2.92780000000000    0.55230000000000    2.15020000000000
C         3.36330000000000    1.88660000000000    2.50260000000000
C         4.53140000000000    1.78590000000000    3.47740000000000
H         4.27910000000000    1.16090000000000    4.33690000000000
H         5.39390000000000    1.33790000000000    2.97340000000000
H         4.82390000000000    2.77870000000000    3.83820000000000
C         3.79700000000000    2.56850000000000    1.19670000000000
H         4.20020000000000    3.57090000000000    1.37680000000000
H         4.56740000000000    1.95560000000000    0.72110000000000
H         2.95240000000000    2.63260000000000    0.50540000000000
C         2.05040000000000    2.50090000000000    3.09320000000000
O         1.03750000000000    1.81620000000000    2.31910000000000
C         1.89100000000000    4.00450000000000    2.88650000000000
H         1.87290000000000    4.25440000000000    1.82410000000000
H         0.94940000000000    4.34260000000000    3.33170000000000
H         2.71080000000000    4.55150000000000    3.36630000000000
C         1.82470000000000    2.13200000000000    4.56520000000000
H         1.92610000000000    1.05330000000000    4.71320000000000
H         2.52610000000000    2.65280000000000    5.22540000000000
H         0.80630000000000    2.41580000000000    4.84900000000000
B         2.27820000000000   -1.33090000000000    0.17410000000000
O         2.89460000000000   -2.57740000000000    0.38450000000000
C         4.26930000000000   -2.48200000000000   -0.07210000000000
C         5.10900000000000   -2.05380000000000    1.14010000000000
H         4.76350000000000   -1.08740000000000    1.51750000000000
H         4.98050000000000   -2.79470000000000    1.93590000000000
H         6.17420000000000   -1.99290000000000    0.89300000000000
C         4.71950000000000   -3.84660000000000   -0.58470000000000
H         4.75280000000000   -4.56130000000000    0.24420000000000
H         5.72330000000000   -3.78370000000000   -1.02010000000000
H         4.03500000000000   -4.23600000000000   -1.34170000000000
C         4.16440000000000   -1.36220000000000   -1.16300000000000
O         3.08520000000000   -0.55030000000000   -0.65400000000000
C         5.40720000000000   -0.48870000000000   -1.31550000000000
H         6.27320000000000   -1.09010000000000   -1.61530000000000
H         5.23300000000000    0.26930000000000   -2.08590000000000
H         5.64270000000000    0.02650000000000   -0.38240000000000
C         3.71800000000000   -1.89830000000000   -2.53110000000000
H         2.82530000000000   -2.52160000000000   -2.42740000000000
H         3.46090000000000   -1.05250000000000   -3.17550000000000
H         4.50570000000000   -2.48290000000000   -3.01790000000000
H        -3.38500000000000   -4.00130000000000   -2.59310000000000
H        -5.21400000000000    1.52080000000000    1.29960000000000
C         0.23590000000000   -1.68140000000000    2.96030000000000
C        -0.96992301867900   -2.21635304239455    3.40642090829870
C         1.27989186455552   -1.58958812317986    3.88452404054524
C        -1.16239485741107   -2.59341347823928    4.73566987168011
H        -1.78681440602763   -2.37587905190424    2.71116333510161
C         1.09993642539336   -1.93340019793339    5.21438994914318
H         2.25579158858757   -1.26754643557035    3.54650455812168
C        -2.46370086947259   -3.19908418762628    5.17241932355037
C        -0.11976981169775   -2.43676569384595    5.64335222906712
H         1.92392212677719   -1.84779284680259    5.91287496301354
H        -2.35732503951138   -3.67462019167714    6.14804878706668
H        -2.79796885697685   -3.94779829453185    4.45270173903555
H        -3.23731829532041   -2.43205588754617    5.24605582099856
H        -0.24863949890206   -2.74051764785616    6.67532620070774
99
 energy: -139.590725144270 gnorm: 0.045635318119 xtb: 6.4.1 (1a32961)
N        -0.96136985755164   -2.10020995734545   -0.25072186554828
C        -2.24029117741522   -1.69101821370128   -0.36301515977188
C        -3.13487083943527   -2.36256362280955   -1.20553939395152
C        -2.70439059044313   -3.46363163200296   -1.92144545040499
C        -1.38403509782335   -3.88232689643702   -1.78216911670975
C        -0.55390250885922   -3.16771840683966   -0.94067860117000
H         0.47974892878241   -3.44798158876556   -0.79089517919493
H        -1.00762027073684   -4.74233065876556   -2.31755374019902
H        -4.15552366246857   -2.02734482580906   -1.30938743347924
C        -2.61158731209468   -0.51574871411230    0.43818416710211
N        -1.61893959685211    0.06202689406973    1.15208814150696
C        -1.89707131302445    1.13538227395218    1.89655711015216
C        -3.16332194653760    1.68625811388868    1.98271019590479
C        -4.19528955259361    1.10236936047186    1.25609821227959
C        -3.91418047103622   -0.00428112484226    0.47636765361013
H        -4.70555684171588   -0.46676114947942   -0.09345911740123
H        -3.33808112218090    2.55010743127652    2.60873866795827
H        -1.05399099734209    1.55387093832044    2.42522076494737
Ir        0.42150000000000   -0.81650000000000    0.91330000000000
H         0.87260000000000   -2.23030000000000    1.54050000000000
B         0.48921569418295    0.42694282167112   -0.78796506739662
O         0.17519240614251   -0.03376525702864   -2.06063732271587
C         0.01045245006775    1.09681871171338   -2.94267113746450
C         0.48940424365720    0.74679012478974   -4.34762299537727
H         1.50839731581543    0.37009598760921   -4.32644956328897
H         0.44448749950171    1.62208206626293   -4.99640088964473
H        -0.14938555617249   -0.02926587934205   -4.76791673140002
C        -1.49371395637625    1.39906949839481   -2.96966226735884
H        -1.73213404511310    2.21178880265007   -3.65418159287512
H        -2.02359120086920    0.50174096474800   -3.28933852679802
H        -1.84052736969947    1.65405799176631   -1.96812884302902
C         0.83176505363381    2.20753116264568   -2.21250988580142
O         0.75512027982922    1.78275394042421   -0.83502461166376
C         2.31420341696587    2.19098917413469   -2.60030847018497
H         2.71833027923204    1.19187536708404   -2.44987715497160
H         2.46583374891957    2.51190009719162   -3.63027501417920
H         2.85659280985386    2.86588033555714   -1.93913948722198
C         0.28015919945410    3.62345166424318   -2.34036718310677
H        -0.72305717070052    3.69224516873153   -1.92782480761289
H         0.91975729363971    4.30721522254636   -1.78375760172645
H         0.26237262895432    3.93553268264743   -3.38472969916706
B         1.56456686246934    0.62289113393189    1.84645320301878
O         2.92536595745121    0.57030247094189    2.12909240394742
C         3.36341001711674    1.88962881701911    2.50742661741567
C         4.53263912721380    1.78976884745909    3.47886587189931
H         4.27971395143579    1.16097093572032    4.32850075602988
H         5.38793246882511    1.34557429843754    2.97134500155700
H         4.81556390426419    2.77958929506930    3.83613040397123
C         3.80007158545824    2.57721588752012    1.20976038911016
H         4.20150511840464    3.57272575053936    1.39419129076152
H         4.56382417815262    1.96504206674892    0.73300000307587
H         2.95172821448658    2.62916380544376    0.52860258940067
C         2.05296840780359    2.50627112445849    3.08834640107394
O         1.04039342934608    1.81224835560730    2.33344987168311
C         1.89418820714551    4.00844872230944    2.88890311783376
H         1.86856768080420    4.25226888250928    1.83064551167976
H         0.95660959136414    4.33694774845231    3.33567791824918
H         2.71478779014049    4.54442728795944    3.36525848210701
C         1.83223862262213    2.14176588077192    4.56066213285106
H         1.93294062653606    1.06608843611338    4.69867630095008
H         2.53348105109709    2.66323300351796    5.20986841264666
H         0.81774203056951    2.42002863086772    4.84515577715409
B         2.27820000000000   -1.33090000000000    0.17410000000001
O         2.90156839982523   -2.56181993034566    0.39018331581674
C         4.26578175939231   -2.48326499274056   -0.07813315351071
C         5.11029586975353   -2.05837835957084    1.12758541605293
H         4.75379515202529   -1.09827111925219    1.49830060990345
H         4.97848269462984   -2.79347927689397    1.92070160631488
H         6.16808460072803   -1.99815889027338    0.87569184921713
C         4.72064970146357   -3.84537647946777   -0.58796051694357
H         4.75024650290026   -4.54957866167250    0.24222037077373
H         5.71839351951416   -3.77375624928786   -1.02029103440092
H         4.03484828090930   -4.23295133465917   -1.33654884491430
C         4.16632385661603   -1.36022075982826   -1.15812211017770
O         3.07421662395771   -0.56365961203212   -0.66248342491384
C         5.40958744970780   -0.49194274507651   -1.31598563369182
H         6.26583979245187   -1.09772707602586   -1.61163115003691
H         5.23112842687398    0.25913266112715   -2.08434852494755
H         5.63718657501174    0.02271181801785   -0.38696288915090
C         3.72949501533187   -1.89961826633674   -2.52621517056062
H         2.83742073720995   -2.51501596788547   -2.41739667418959
H         3.47202173413781   -1.05813399284896   -3.16810545046573
H         4.51956738916986   -2.47675992322085   -3.00390268402073
H        -3.38366955351269   -3.98856061152498   -2.57945005024264
H        -5.19916457271997    1.50420558904603    1.29606736807853
C         0.23590000000000   -1.68139999999998    2.96030000000001
C        -0.97054332569673   -2.21417469682896    3.40516294962489
C         1.27750012461554   -1.58818390025887    3.88829799346565
C        -1.16523544634923   -2.58929249105055    4.73327883629021
H        -1.78597793360995   -2.37371992462533    2.70974612074178
C         1.09284838262172   -1.93042635036754    5.21542497962389
H         2.25214583303686   -1.26666452820274    3.55319953543381
C        -2.46817711866025   -3.19435964733695    5.16876677837833
C        -0.12610965699988   -2.43247355403332    5.64072579351176
H         1.91375004550288   -1.84444600814212    5.91539521418305
H        -2.36402917539354   -3.66901301113153    6.14272521916856
H        -2.80207165777478   -3.94202021428525    4.45046338009198
H        -3.24082384061661   -2.42840803018756    5.24134123338044
H        -0.25717517855671   -2.73466100669952    6.67120005884022
99
 energy: -139.592422485966 gnorm: 0.036755837995 xtb: 6.4.1 (1a32961)
N        -0.95364271395166   -2.09414483607302   -0.25711957795168
C        -2.23104998069701   -1.68670535573280   -0.36356921976217
C        -3.13072532999493   -2.35695617575254   -1.20119201317459
C        -2.70825637995068   -3.45439955463745   -1.91887544978372
C        -1.38789804482017   -3.87310117624754   -1.78385839598726
C        -0.55811796667647   -3.15916684242478   -0.94688020084558
H         0.47446850834494   -3.44286937012141   -0.80560675767908
H        -1.01713066598954   -4.73235512513219   -2.31800287424983
H        -4.15025953061118   -2.02299944644884   -1.29661690079484
C        -2.59844418250623   -0.52099873351352    0.43432461836571
N        -1.60838448424628    0.05067568452799    1.15104879568216
C        -1.89287486872284    1.11885769228288    1.89047062640836
C        -3.15402928018769    1.67208227790313    1.97724842464293
C        -4.18662433900856    1.08963202372535    1.25025393364712
C        -3.90141007200083   -0.01062129206653    0.47090505704123
H        -4.68997551610700   -0.47374465065380   -0.09789991059034
H        -3.32892494761451    2.53288738836452    2.60187778528697
H        -1.05522078058255    1.54189018659017    2.42096579915486
Ir        0.42150000000000   -0.81650000000000    0.91330000000000
H         0.87260000000000   -2.23030000000000    1.54050000000000
B         0.49156924284087    0.43972447075684   -0.76405422478425
O         0.15452814351625   -0.02254947079643   -2.02915043477101
C         0.00497675338818    1.09469844556224   -2.92191913553361
C         0.48895778693395    0.73851710164320   -4.32403134459993
H         1.50421437657875    0.35807376961655   -4.30371338614232
H         0.44428151814572    1.61666583297612   -4.96338778547821
H        -0.15388390987955   -0.03151744609899   -4.74260850349400
C        -1.49748827634474    1.40633149436569   -2.96884809907798
H        -1.71742054093559    2.21496155649444   -3.65945339077552
H        -2.02654153425826    0.51119049952221   -3.28921355847779
H        -1.84717670233155    1.66508850909666   -1.97157588513828
C         0.82319771250623    2.20852762262354   -2.19979496046821
O         0.75795109953689    1.78965282511202   -0.82683369684675
C         2.30309982882105    2.19668942464726   -2.59802471777097
H         2.70432491888621    1.19922839222637   -2.44007263755315
H         2.44142201826263    2.50945565626431   -3.62917798572840
H         2.84566131100266    2.87653013285198   -1.94571047346067
C         0.26891353673542    3.62285902427530   -2.33808550908338
H        -0.73011743585385    3.69754858588790   -1.92194709173795
H         0.91360321552870    4.30572121360090   -1.79137495769364
H         0.25152722125368    3.91771088520573   -3.38399500871659
B         1.56517816803114    0.62990082868837    1.85505725743509
O         2.92426560382353    0.58453184080450    2.11220651627624
C         3.36222256774164    1.89351469775694    2.50668811432680
C         4.52931225154695    1.79091247303938    3.48135586379839
H         4.27870380375247    1.15691683111523    4.32485764997896
H         5.38242527834817    1.35400632326782    2.96961623247799
H         4.80261742316376    2.77978978797523    3.83819142767167
C         3.80451827312340    2.59463298721189    1.21831908718089
H         4.20279724792755    3.58602271241343    1.41131750748128
H         4.56745465784805    1.98523369561217    0.74137297970607
H         2.95508049725990    2.64141722049290    0.54127349499890
C         2.05410138742613    2.50864122806339    3.08799929974809
O         1.04272473325112    1.80797636996508    2.34711496686988
C         1.89682161234363    4.01088309834820    2.88731148063185
H         1.86302164976612    4.25364957347489    1.83123822320384
H         0.96434752926722    4.33529107739722    3.34087279240352
H         2.72111179693666    4.53795697305088    3.35913594090572
C         1.84331703320393    2.15247973736470    4.56460583226888
H         1.94537856699073    1.07837915448311    4.69767057773845
H         2.54751730399754    2.67750769348773    5.20215234216736
H         0.83105544332102    2.42844616047752    4.85040884265352
B         2.27819999999999   -1.33090000000000    0.17410000000002
O         2.90450216682070   -2.54973335808413    0.39843011762051
C         4.25902858358663   -2.48107633939328   -0.07931841522840
C         5.11457796853077   -2.05961457413876    1.11943411639251
H         4.75314468290679   -1.10228894267900    1.48684516312304
H         4.98352652648746   -2.79303728388096    1.91062098091797
H         6.16666834516798   -2.00042344915342    0.85852508430226
C         4.71310610060312   -3.84287254632865   -0.59199419178223
H         4.74542141595992   -4.54045623665074    0.23982517925292
H         5.70669173458516   -3.76201509518828   -1.02351309449849
H         4.02711421664399   -4.23233526897030   -1.33589833694572
C         4.16150698586041   -1.36002364586181   -1.15736163507011
O         3.06208738425048   -0.57307851460996   -0.67171482833286
C         5.40616126833255   -0.49320894214873   -1.31119197367977
H         6.25476975197278   -1.10628454160630   -1.60108651986607
H         5.22914325999724    0.25100202779621   -2.08262538005846
H         5.63032790814339    0.02389200807580   -0.38541130415296
C         3.73967045598768   -1.90335682606404   -2.52925694596092
H         2.84873171126806   -2.51617540075729   -2.41955910384843
H         3.48578208173546   -1.06384539062588   -3.17171146590041
H         4.53614969813509   -2.47609148256036   -2.99390786189915
H        -3.38909166806568   -3.97937418552998   -2.57076775045519
H        -5.18881262477938    1.48818154414001    1.29295461902789
C         0.23590000000000   -1.68139999999993    2.96030000000004
C        -0.97252670231663   -2.21145947333052    3.40148367530271
C         1.27373037026795   -1.58392427989302    3.89302509066533
C        -1.17284878898739   -2.58240027984133    4.72950245336997
H        -1.78541208871570   -2.37172757419063    2.70382688965733
C         1.08225651139045   -1.92331059567063    5.21878391319011
H         2.24806087289663   -1.26163503943417    3.56082826384186
C        -2.47857926027416   -3.18545809325378    5.16152798667119
C        -0.13807915863288   -2.42441559128045    5.63958946879162
H         1.89921467696651   -1.83560644863345    5.92222597848529
H        -2.37724567636303   -3.65892059260750    6.13533250749551
H        -2.81084011324712   -3.93263074797121    4.44309951816502
H        -3.24956610545764   -2.41846800085062    5.23119922557808
H        -0.27338238037038   -2.72418872585416    6.66949802907914
99
 energy: -139.593090299245 gnorm: 0.035905598173 xtb: 6.4.1 (1a32961)
N        -0.94365060057355   -2.09177328310041   -0.26776692391420
C        -2.22244921020089   -1.68534752663640   -0.36680152951847
C        -3.12778164305012   -2.35606372986808   -1.19932286177477
C        -2.71113902914733   -3.45292853454647   -1.91954498517405
C        -1.38855110403846   -3.87118021617852   -1.79203912082061
C        -0.55429800940590   -3.15595922251405   -0.96055095260056
H         0.47849694074643   -3.44324268395750   -0.82551452108090
H        -1.02203141917245   -4.73075416380981   -2.32740588393845
H        -4.14759084594708   -2.02117729379788   -1.28700993097866
C        -2.58774182340791   -0.52421308453963    0.43196843697502
N        -1.59817364788271    0.04635087529124    1.15095580798753
C        -1.88610386206330    1.11293093083430    1.89019156256071
C        -3.14707116341177    1.66526250618993    1.97779952151519
C        -4.18029229414404    1.08232876542116    1.24923703118079
C        -3.89196275880526   -0.01492091581523    0.46852346706681
H        -4.67784120454316   -0.47807517949538   -0.10360892034321
H        -3.32308420148875    2.52397374840560    2.60373414819541
H        -1.05210487556914    1.53644295732747    2.42661417679603
Ir        0.42150000000000   -0.81650000000000    0.91330000000001
H         0.87260000000000   -2.23030000000000    1.54050000000001
B         0.47759959916437    0.45595308238269   -0.74317328476271
O         0.13147801639201   -0.01241177601185   -2.00358103423660
C        -0.00518689498290    1.09561063363000   -2.90371005449097
C         0.48614711476786    0.72824018480223   -4.30127696507616
H         1.49880207599785    0.34183617179673   -4.27442346159150
H         0.44876510437920    1.60584136087069   -4.94108944262017
H        -0.15985725855899   -0.03907186889431   -4.71938835992140
C        -1.50645978075866    1.41559957021210   -2.96745797750148
H        -1.71147750118553    2.22175391308486   -3.66482193597667
H        -2.03630964743572    0.52171759324736   -3.28917169452051
H        -1.86448524875769    1.68127391524184   -1.97516844859418
C         0.81390286074227    2.21232051145712   -2.18672347133454
O         0.75739779397220    1.80099680709491   -0.81463660656257
C         2.29225230377864    2.20201439511507   -2.59440680343864
H         2.69574368575608    1.20667939632432   -2.42958933582760
H         2.42111891528101    2.50609918639456   -3.62892267534966
H         2.83605119185146    2.88952993194472   -1.95151453938797
C         0.25798026548816    3.62619062914621   -2.33370112491638
H        -0.73877834778025    3.70501074910401   -1.91341181074499
H         0.90637349414807    4.31378874756857   -1.79761948775754
H         0.23584467739188    3.90774825844363   -3.38287026279736
B         1.56659076181044    0.63830677021967    1.85204100402153
O         2.92523835247503    0.59580830041511    2.09580482100608
C         3.36228807379055    1.89848632003460    2.50441771174739
C         4.52800219269328    1.79043946845524    3.48186697169590
H         4.27798058342635    1.14939416278190    4.31997208956683
H         5.38326837692101    1.36086360139077    2.96787710474197
H         4.79505587432048    2.77823751414435    3.84537402753134
C         3.80964191695764    2.61285619812028    1.22386514672871
H         4.20393470372928    3.60290170808031    1.42845441085968
H         4.57638108861416    2.00933769744142    0.74571626945704
H         2.96230944483258    2.66240728931312    0.54484050151267
C         2.05439636362750    2.51091965712106    3.08939411794951
O         1.04153474894474    1.80523158143410    2.35917786758073
C         1.89548910752638    4.01371511047079    2.88690468694517
H         1.85320576004886    4.25552812667896    1.83102322671992
H         0.96753128788342    4.33906689031963    3.34856266822459
H         2.72520723258232    4.53803270533655    3.35142780668339
C         1.85445755929901    2.16199082922020    4.57040064295314
H         1.95895618956433    1.08875134849909    4.70614466992182
H         2.56284944645095    2.69177701419221    5.19851922884315
H         0.84385530588043    2.43808168093751    4.86094657780163
B         2.27819999999998   -1.33090000000000    0.17410000000003
O         2.90676027732810   -2.54314149153202    0.40777398192274
C         4.25467305392042   -2.47974112272426   -0.07943725355258
C         5.12042785008506   -2.05949075012280    1.11358922450395
H         4.76041845473218   -1.10231727581903    1.48223937833961
H         4.99336617607413   -2.79321078213642    1.90476442241899
H         6.16974679535116   -2.00118889645837    0.84410972572083
C         4.70514706828908   -3.84321405614542   -0.59379483928390
H         4.74173785639528   -4.53906225346032    0.23894622796974
H         5.69620020148223   -3.75923528802032   -1.02939823210475
H         4.01614490043993   -4.23354316973533   -1.33419509678598
C         4.15718132439595   -1.36024746892087   -1.15903856215515
O         3.05226579593528   -0.57841988014797   -0.68230244533110
C         5.40185336791313   -0.49147643932423   -1.30801476972422
H         6.25002893372363   -1.10819837251634   -1.59020730109711
H         5.22890128802523    0.24868280329127   -2.08393658620947
H         5.62093078862898    0.02913437393676   -0.38324162901754
C         3.74844173107090   -1.90739258759912   -2.53448271688625
H         2.85820410677116   -2.52158280062491   -2.43029826214177
H         3.49966135280210   -1.06931884111755   -3.18053581604970
H         4.55157074444402   -2.47861252060456   -2.98828164772349
H        -3.39555707239495   -3.97731102306271   -2.56767125761307
H        -5.18285573826559    1.47874156197126    1.29261304738182
C         0.23590000000001   -1.68139999999986    2.96030000000007
C        -0.97513905638482   -2.20875340127748    3.39668791369597
C         1.26908925517942   -1.57925913521357    3.89793979213491
C        -1.18288116476526   -2.57435169087018    4.72516858119221
H        -1.78447210672281   -2.37108859046537    2.69537481867252
C         1.06998609972455   -1.91397313456136    5.22364817812394
H         2.24435082326448   -1.25665198094491    3.56899499314187
C        -2.49196042049468   -3.17407145727445    5.15253087140209
C        -0.15281869840913   -2.41375683186270    5.63979466498611
H         1.88264101280723   -1.82330742225433    5.93168776358705
H        -2.39525771940946   -3.64632791818104    6.12731334379442
H        -2.82257630408642   -3.92124313396593    4.43345748315924
H        -3.26123835070414   -2.40503964437125    5.21793298611947
H        -0.29355729157804   -2.70971608832001    6.67005964856308
99
 energy: -139.593877368807 gnorm: 0.036328807710 xtb: 6.4.1 (1a32961)
N        -0.93038826253535   -2.09359866920582   -0.28063501386585
C        -2.21120889742929   -1.68694418815352   -0.37074593023784
C        -3.12296277373110   -2.35766807134930   -1.19830425906019
C        -2.71296164345613   -3.45330513761416   -1.92345276493622
C        -1.38714964858175   -3.87013957943543   -1.80779698744088
C        -0.54652215415311   -3.15510887115488   -0.98130677768042
H         0.48844674886901   -3.44314530099330   -0.85905774927986
H        -1.02535826694713   -4.72894160131913   -2.34791442061317
H        -4.14379995112956   -2.02198490099771   -1.27488096149762
C        -2.57395253692902   -0.52944082158514    0.43057395930756
N        -1.58510755336369    0.03767710894844    1.15643043831292
C        -1.87625999457340    1.10332691431922    1.89765663005404
C        -3.13711559482410    1.65618397277514    1.98316143025157
C        -4.17025804330653    1.07522454524215    1.24947498616569
C        -3.87855600746360   -0.01798821776436    0.46519530104513
H        -4.66121571258140   -0.48011235482219   -0.11270956943437
H        -3.31440228183617    2.51277039556002    2.61158993633763
H        -1.04566764568990    1.52799510530523    2.43961735739218
Ir        0.42150000000000   -0.81650000000001    0.91330000000001
H         0.87260000000000   -2.23030000000000    1.54050000000001
B         0.47201590419598    0.47716949813775   -0.71677605209213
O         0.09533483163551    0.00405183290241   -1.96730727542846
C        -0.02509355024760    1.10017076849806   -2.87648673503592
C         0.47764963159526    0.71082573390006   -4.26549285908626
H         1.48543234445371    0.31172454314500   -4.22203709518141
H         0.45800059738299    1.58296756703698   -4.91423513055127
H        -0.17332156574124   -0.05370008621112   -4.68175822194039
C        -1.52397003879165    1.43355087696301   -2.96442622188092
H        -1.70895133449736    2.23565630380013   -3.67242290808595
H        -2.05662316905902    0.54159111030315   -3.28743490546205
H        -1.89684301256992    1.71183322329743   -1.98053306109826
C         0.79914523614299    2.22154750490850   -2.16863479044887
O         0.75682948640799    1.81870068531536   -0.79685093181194
C         2.27550309690970    2.21338556936217   -2.58853797439832
H         2.68543782482634    1.22234277208361   -2.41156966219820
H         2.39233461239182    2.50211423465980   -3.62904826458924
H         2.82079205790495    2.91477633653330   -1.96121498423177
C         0.23858649414061    3.63401653394218   -2.32550116402945
H        -0.75416158899369    3.71753917544418   -1.89571680314587
H         0.89232187863046    4.33128832634242   -1.80737182961588
H         0.20405612489760    3.89898986421052   -3.37916610751512
B         1.56653472980460    0.64342351721207    1.85806833885016
O         2.92902659824493    0.61206560437865    2.07196726024053
C         3.36378768669391    1.90767960188724    2.50017538393358
C         4.52803525886539    1.78845518414625    3.48032734041073
H         4.27864311513028    1.13353380110598    4.30847670053983