      -----------------------------------------------------------      
     |                   =====================                   |     
     |                           x T B                           |     
     |                   =====================                   |     
     |                         S. Grimme                         |     
     |          Mulliken Center for Theoretical Chemistry        |     
     |                    University of Bonn                     |     
      -----------------------------------------------------------      

   * xtb version 6.4.1 (1a32961) compiled by 'knkr256@seskscpg007.prim.scp' on 2021-10-19

   xtb is free software: you can redistribute it and/or modify it under
   the terms of the GNU Lesser General Public License as published by
   the Free Software Foundation, either version 3 of the License, or
   (at your option) any later version.
   
   xtb is distributed in the hope that it will be useful,
   but WITHOUT ANY WARRANTY; without even the implied warranty of
   MERCHANTABILITY or FITNESS FOR A PARTICULAR PURPOSE.  See the
   GNU Lesser General Public License for more details.
   
   Cite this work as:
   * C. Bannwarth, E. Caldeweyher, S. Ehlert, A. Hansen, P. Pracht,
     J. Seibert, S. Spicher, S. Grimme, WIREs Comput. Mol. Sci., 2020, 11,
     e01493. DOI: 10.1002/wcms.1493
   
   for GFN2-xTB:
   * C. Bannwarth, S. Ehlert and S. Grimme., J. Chem. Theory Comput., 2019,
     15, 1652-1671. DOI: 10.1021/acs.jctc.8b01176
   for GFN1-xTB:
   * S. Grimme, C. Bannwarth, P. Shushkov, J. Chem. Theory Comput., 2017,
     13, 1989-2009. DOI: 10.1021/acs.jctc.7b00118
   for GFN0-xTB:
   * P. Pracht, E. Caldeweyher, S. Ehlert, S. Grimme, ChemRxiv, 2019, preprint.
     DOI: 10.26434/chemrxiv.8326202.v1
   for GFN-FF:
   * S. Spicher and S. Grimme, Angew. Chem. Int. Ed., 2020, 59, 15665-15673.
     DOI: 10.1002/anie.202004239
   
   for ALPB and GBSA implicit solvation:
   * S. Ehlert, M. Stahn, S. Spicher, S. Grimme, J. Chem. Theory Comput.,
     2021, 17, 4250-4261. DOI: 10.1021/acs.jctc.1c00471
   
   for DFT-D4:
   * E. Caldeweyher, C. Bannwarth and S. Grimme, J. Chem. Phys., 2017,
     147, 034112. DOI: 10.1063/1.4993215
   * E. Caldeweyher, S. Ehlert, A. Hansen, H. Neugebauer, S. Spicher,
     C. Bannwarth and S. Grimme, J. Chem. Phys., 2019, 150, 154122.
     DOI: 10.1063/1.5090222
   * E. Caldeweyher, J.-M. Mewes, S. Ehlert and S. Grimme, Phys. Chem. Chem. Phys.
     2020, 22, 8499-8512. DOI: 10.1039/D0CP00502A
   
   for sTDA-xTB:
   * S. Grimme and C. Bannwarth, J. Chem. Phys., 2016, 145, 054103.
     DOI: 10.1063/1.4959605
   
   in the mass-spec context:
   * V. Asgeirsson, C. Bauer and S. Grimme, Chem. Sci., 2017, 8, 4879.
     DOI: 10.1039/c7sc00601b
   * J. Koopman and S. Grimme, ACS Omega 2019, 4, 12, 15120-15133.
     DOI: 10.1021/acsomega.9b02011
   
   for metadynamics refer to:
   * S. Grimme, J. Chem. Theory Comput., 2019, 155, 2847-2862
     DOI: 10.1021/acs.jctc.9b00143
   
   for SPH calculations refer to:
   * S. Spicher and S. Grimme, J. Chem. Theory Comput., 2021, 17, 1701-1714
     DOI: 10.1021/acs.jctc.0c01306
   
   with help from (in alphabetical order)
   P. Atkinson, C. Bannwarth, F. Bohle, G. Brandenburg, E. Caldeweyher
   M. Checinski, S. Dohm, S. Ehlert, S. Ehrlich, I. Gerasimov, J. Koopman
   C. Lavigne, S. Lehtola, F. März, M. Müller, F. Musil, H. Neugebauer
   J. Pisarek, C. Plett, P. Pracht, J. Seibert, P. Shushkov, S. Spicher
   M. Stahn, M. Steiner, T. Strunk, J. Stückrath, T. Rose, and J. Unsleber
   
 * started run on 2022/01/14 at 13:19:21.654     

           -------------------------------------------------
          |                Calculation Setup                |
           -------------------------------------------------

          program call               : xtb xtbopt.xyz --sp --alpb thf -P 6
          hostname                   : seskscpg007.prim.scp
          coordinate file            : xtbopt.xyz
          omp threads                :                     6
          number of atoms            :                    99
          number of electrons        :                   264
          charge                     :                     0
          spin                       :                   0.0
          first test random number   :      0.31863037780094

   ID    Z sym.   atoms
    1    7 N      1, 11, 93, 95
    2    6 C      2-6, 10, 12-15, 23, 24, 28, 32, 34, 38, 44, 45, 49, 53, 55,
                  59, 65, 66, 70, 74, 76, 80, 86-89, 91, 92, 96
    3    1 H      7-9, 16-18, 20, 25-27, 29-31, 35-37, 39-41, 46-48, 50-52,
                  56-58, 60-62, 67-69, 71-73, 77-79, 81-85, 90, 94, 97-99
    4   77 Ir     19
    5    5 B      21, 42, 63
    6    8 O      22, 33, 43, 54, 64, 75

molecular fragmentation (1/2 indicates fragments):
111111111111111111111111111111111111111111111111111111111111111111111111
111111111111122222222222222
# atoms in fragment 1/2:    85    14
 fragment masses (1/2) :      730.32      117.13
CMA distance (Bohr)    :   9.011
constraining FC (au)   :  0.0500

           -------------------------------------------------
          |                 G F N 2 - x T B                 |
           -------------------------------------------------

        Reference                      10.1021/acs.jctc.8b01176
      * Hamiltonian:
        H0-scaling (s, p, d)           1.850000    2.230000    2.230000
        zeta-weighting                 0.500000
      * Dispersion:
        s8                             2.700000
        a1                             0.520000
        a2                             5.000000
        s9                             5.000000
      * Repulsion:
        kExp                           1.500000    1.000000
        rExp                           1.000000
      * Coulomb:
        alpha                          2.000000
        third order                    shell-resolved
        anisotropic                    true
        a3                             3.000000
        a5                             4.000000
        cn-shift                       1.200000
        cn-exp                         4.000000
        max-rad                        5.000000

      * Solvation model:               ALPB
        Solvent                        thf
        Parameter file                 internal GFN2-xTB/ALPB
        Dielectric constant                7.6000E+00
        Reference state                gsolv [1 M gas/solution]
        Free energy shift                  5.3248E-03 Eh       3.3414E+00 kcal/mol
        Temperature                        2.9815E+02 K
        Density                            8.8300E-01 kg/L
        Solvent mass                       7.2106E+01 g/mol
        Interaction kernel             P16
        Born radius scaling (c1)           1.7311E+00
        Born radii integrator          GBOBC
        Born offset                        0.0000E+00 a0       0.0000E+00 AA
        H-bond correction              true
        Ion screening                  false
        Surface tension                    1.0000E-05 Eh       1.5569E+01 dyn/cm
        Grid points                               230 per atom
q/qsh data taken from xtbrestart
CAMM data taken from xtbrestart

          ...................................................
          :                      SETUP                      :
          :.................................................:
          :  # basis functions                 252          :
          :  # atomic orbitals                 251          :
          :  # shells                          149          :
          :  # electrons                       264          :
          :  max. iterations                   250          :
          :  Hamiltonian                  GFN2-xTB          :
          :  restarted?                       true          :
          :  GBSA solvation                   true          :
          :  PC potential                    false          :
          :  electronic temp.          300.0000000     K    :
          :  accuracy                    1.0000000          :
          :  -> integral cutoff          0.2500000E+02      :
          :  -> integral neglect         0.1000000E-07      :
          :  -> SCF convergence          0.1000000E-05 Eh   :
          :  -> wf. convergence          0.1000000E-03 e    :
          :  Broyden damping             0.4000000          :
          ...................................................

 iter      E             dE          RMSdq      gap      omega  full diag
   1   -146.3310042 -0.146331E+03  0.344E-05    0.90       0.0  T
   2   -146.3310042  0.181672E-09  0.507E-05    0.90     198.4  T
   3   -146.3310042 -0.195172E-09  0.233E-05    0.90     431.0  T

   *** convergence criteria satisfied after 3 iterations ***

         #    Occupation            Energy/Eh            Energy/eV
      -------------------------------------------------------------
         1        2.0000           -0.6747962             -18.3621
       ...           ...                  ...                  ...
       126        2.0000           -0.3617628              -9.8441
       127        2.0000           -0.3443766              -9.3710
       128        2.0000           -0.3320121              -9.0345
       129        2.0000           -0.3217655              -8.7557
       130        2.0000           -0.3180117              -8.6535
       131        2.0000           -0.3116107              -8.4794
       132        2.0000           -0.3084773              -8.3941 (HOMO)
       133                         -0.2753697              -7.4932 (LUMO)
       134                         -0.2480164              -6.7489
       135                         -0.2448871              -6.6637
       136                         -0.2319871              -6.3127
       137                         -0.2042351              -5.5575
       ...                                ...                  ...
       251                          3.7570232             102.2338
      -------------------------------------------------------------
                  HL-Gap            0.0331077 Eh            0.9009 eV
             Fermi-level           -0.2919063 Eh           -7.9432 eV

 SCC (total)                   0 d,  0 h,  0 min,  0.085 sec
 SCC setup                      ...        0 min,  0.002 sec (  2.852%)
 Dispersion                     ...        0 min,  0.003 sec (  3.112%)
 classical contributions        ...        0 min,  0.000 sec (  0.179%)
 integral evaluation            ...        0 min,  0.011 sec ( 12.427%)
 iterations                     ...        0 min,  0.035 sec ( 40.966%)
 molecular gradient             ...        0 min,  0.034 sec ( 39.532%)
 printout                       ...        0 min,  0.001 sec (  0.847%)

         :::::::::::::::::::::::::::::::::::::::::::::::::::::
         ::                     SUMMARY                     ::
         :::::::::::::::::::::::::::::::::::::::::::::::::::::
         :: total energy            -144.451977449730 Eh    ::
         :: total w/o Gsasa/hb      -144.410843530477 Eh    ::
         :: gradient norm              0.033301056090 Eh/a0 ::
         :: HOMO-LUMO gap              0.900905095546 eV    ::
         ::.................................................::
         :: SCC energy              -146.331004238107 Eh    ::
         :: -> isotropic ES            0.250630770771 Eh    ::
         :: -> anisotropic ES          0.012489956438 Eh    ::
         :: -> anisotropic XC          0.051158523206 Eh    ::
         :: -> dispersion             -0.141468249288 Eh    ::
         :: -> Gsolv                  -0.052822698209 Eh    ::
         ::    -> Gelec               -0.011688778956 Eh    ::
         ::    -> Gsasa               -0.042325052535 Eh    ::
         ::    -> Ghb                 -0.004133682162 Eh    ::
         ::    -> Gshift               0.005324815444 Eh    ::
         :: repulsion energy           1.870337952222 Eh    ::
         :: add. restraining           0.000000000000 Eh    ::
         :: total charge               0.000000000025 e     ::
         :::::::::::::::::::::::::::::::::::::::::::::::::::::

           -------------------------------------------------
          |                Property Printout                |
           -------------------------------------------------

    * Orbital Energies and Occupations

         #    Occupation            Energy/Eh            Energy/eV
      -------------------------------------------------------------
         1        2.0000           -0.6747962             -18.3621
       ...           ...                  ...                  ...
       120        2.0000           -0.3880325             -10.5589
       121        2.0000           -0.3867010             -10.5227
       122        2.0000           -0.3831811             -10.4269
       123        2.0000           -0.3818046             -10.3894
       124        2.0000           -0.3739127             -10.1747
       125        2.0000           -0.3641979              -9.9103
       126        2.0000           -0.3617628              -9.8441
       127        2.0000           -0.3443766              -9.3710
       128        2.0000           -0.3320121              -9.0345
       129        2.0000           -0.3217655              -8.7557
       130        2.0000           -0.3180117              -8.6535
       131        2.0000           -0.3116107              -8.4794
       132        2.0000           -0.3084773              -8.3941 (HOMO)
       133                         -0.2753697              -7.4932 (LUMO)
       134                         -0.2480164              -6.7489
       135                         -0.2448871              -6.6637
       136                         -0.2319871              -6.3127
       137                         -0.2042351              -5.5575
       138                         -0.1934031              -5.2628
       139                         -0.1842298              -5.0131
       140                         -0.1513503              -4.1185
       141                         -0.1467389              -3.9930
       142                         -0.1261793              -3.4335
       143                         -0.1230580              -3.3486
       ...                                ...                  ...
       251                          3.7570232             102.2338
      -------------------------------------------------------------
                  HL-Gap            0.0331077 Eh            0.9009 eV
             Fermi-level           -0.2919063 Eh           -7.9432 eV

     #   Z          covCN         q      C6AA      α(0)
     1   7 N        2.555    -0.124    23.723     7.233
     2   6 C        2.955     0.075    26.321     8.415
     3   6 C        2.918    -0.044    29.098     8.846
     4   6 C        2.923    -0.023    28.574     8.766
     5   6 C        2.915    -0.045    29.116     8.848
     6   6 C        2.892     0.048    26.911     8.505
     7   1 H        0.926     0.051     2.307     2.375
     8   1 H        0.926     0.055     2.262     2.352
     9   1 H        0.926     0.046     2.374     2.410
    10   6 C        2.954     0.071    26.411     8.429
    11   7 N        2.555    -0.131    23.873     7.256
    12   6 C        2.889     0.041    27.073     8.531
    13   6 C        2.915    -0.046    29.135     8.851
    14   6 C        2.922    -0.026    28.650     8.778
    15   6 C        2.918    -0.045    29.128     8.850
    16   1 H        0.926     0.044     2.401     2.423
    17   1 H        0.926     0.049     2.331     2.387
    18   1 H        0.926     0.075     2.034     2.230
    19  77 Ir       5.947    -0.152   387.744    36.414
    20   1 H        0.977     0.085     1.918     2.164
    21   5 B        2.630     0.405    15.992     6.756
    22   8 O        1.638    -0.407    20.993     6.185
    23   6 C        3.835     0.130    18.449     6.111
    24   6 C        3.755    -0.121    22.879     6.820
    25   1 H        0.925     0.054     2.276     2.359
    26   1 H        0.925     0.045     2.387     2.416
    27   1 H        0.925     0.051     2.303     2.373
    28   6 C        3.754    -0.109    22.636     6.784
    29   1 H        0.925     0.047     2.353     2.399
    30   1 H        0.925     0.042     2.427     2.436
    31   1 H        0.925     0.027     2.630     2.536
    32   6 C        3.841     0.131    18.431     6.107
    33   8 O        1.637    -0.406    20.982     6.183
    34   6 C        3.755    -0.121    22.882     6.821
    35   1 H        0.925     0.052     2.293     2.368
    36   1 H        0.925     0.046     2.371     2.408
    37   1 H        0.925     0.050     2.325     2.384
    38   6 C        3.754    -0.120    22.848     6.816
    39   1 H        0.925     0.046     2.371     2.408
    40   1 H        0.925     0.053     2.279     2.361
    41   1 H        0.925     0.045     2.378     2.412
    42   5 B        2.620     0.404    16.065     6.781
    43   8 O        1.637    -0.381    20.488     6.110
    44   6 C        3.834     0.128    18.481     6.116
    45   6 C        3.755    -0.127    22.997     6.838
    46   1 H        0.925     0.057     2.238     2.340
    47   1 H        0.925     0.056     2.244     2.342
    48   1 H        0.925     0.050     2.320     2.382
    49   6 C        3.755    -0.121    22.884     6.821
    50   1 H        0.925     0.049     2.337     2.391
    51   1 H        0.925     0.046     2.366     2.405
    52   1 H        0.925     0.051     2.301     2.372
    53   6 C        3.830     0.128    18.491     6.118
    54   8 O        1.637    -0.384    20.542     6.118
    55   6 C        3.755    -0.124    22.932     6.828
    56   1 H        0.925     0.053     2.288     2.365
    57   1 H        0.925     0.053     2.277     2.360
    58   1 H        0.925     0.049     2.337     2.391
    59   6 C        3.755    -0.124    22.940     6.829
    60   1 H        0.925     0.045     2.385     2.415
    61   1 H        0.925     0.052     2.293     2.368
    62   1 H        0.925     0.049     2.327     2.386
    63   5 B        2.625     0.405    16.025     6.768
    64   8 O        1.637    -0.376    20.401     6.097
    65   6 C        3.832     0.125    18.521     6.123
    66   6 C        3.755    -0.129    23.038     6.844
    67   1 H        0.925     0.058     2.220     2.330
    68   1 H        0.925     0.054     2.272     2.357
    69   1 H        0.925     0.050     2.314     2.379
    70   6 C        3.755    -0.130    23.044     6.845
    71   1 H        0.925     0.061     2.182     2.310
    72   1 H        0.925     0.051     2.308     2.376
    73   1 H        0.925     0.052     2.296     2.369
    74   6 C        3.829     0.127    18.497     6.120
    75   8 O        1.637    -0.381    20.493     6.111
    76   6 C        3.755    -0.124    22.942     6.830
    77   1 H        0.925     0.051     2.304     2.374
    78   1 H        0.925     0.053     2.283     2.363
    79   1 H        0.925     0.056     2.251     2.346
    80   6 C        3.755    -0.122    22.896     6.823
    81   1 H        0.925     0.040     2.449     2.447
    82   1 H        0.925     0.050     2.322     2.383
    83   1 H        0.925     0.055     2.261     2.352
    84   1 H        0.926     0.052     2.299     2.371
    85   1 H        0.926     0.047     2.352     2.398
    86   6 C        2.827    -0.013    28.326     8.721
    87   6 C        2.926    -0.056    29.386     8.890
    88   6 C        3.117    -0.031    28.594     8.758
    89   6 C        2.939     0.046    26.977     8.518
    90   1 H        0.926     0.017     2.778     2.606
    91   6 C        3.116     0.128    25.056     8.199
    92   6 C        3.007    -0.077    29.918     8.972
    93   7 N        1.831    -0.297    28.539     7.916
    94   1 H        0.925     0.021     2.716     2.577
    95   7 N        2.775    -0.129    23.793     7.245
    96   6 C        3.039    -0.004    28.082     8.692
    97   1 H        0.927     0.053     2.277     2.360
    98   1 H        0.860     0.214     1.035     1.594
    99   1 H        0.926     0.049     2.332     2.388

 Mol. C6AA /au·bohr⁶  :     106928.175534
 Mol. C8AA /au·bohr⁸  :    2850509.730526
 Mol. α(0) /au        :        507.738383


Wiberg/Mayer (AO) data.
largest (>0.10) Wiberg bond orders for each atom

 ---------------------------------------------------------------------------
     #   Z sym  total        # sym  WBO       # sym  WBO       # sym  WBO
 ---------------------------------------------------------------------------
     1   7 N    3.403 --     6 C    1.387     2 C    1.309    19 Ir   0.446
     2   6 C    3.978 --     3 C    1.344     1 N    1.309    10 C    1.097
     3   6 C    3.987 --     4 C    1.488     2 C    1.344     9 H    0.962
                             6 C    0.106
     4   6 C    3.984 --     3 C    1.488     5 C    1.377    84 H    0.969
     5   6 C    3.978 --     6 C    1.464     4 C    1.377     8 H    0.969
     6   6 C    3.978 --     5 C    1.464     1 N    1.387     7 H    0.957
                             3 C    0.106
     7   1 H    0.997 --     6 C    0.957
     8   1 H    0.996 --     5 C    0.969
     9   1 H    0.997 --     3 C    0.962
    10   6 C    3.978 --    15 C    1.350    11 N    1.297     2 C    1.097
    11   7 N    3.396 --    12 C    1.379    10 C    1.297    19 Ir   0.429
    12   6 C    3.973 --    13 C    1.464    11 N    1.379    18 H    0.948
                            15 C    0.105
    13   6 C    3.982 --    12 C    1.464    14 C    1.378    17 H    0.969
    14   6 C    3.981 --    15 C    1.482    13 C    1.378    85 H    0.969
    15   6 C    3.989 --    14 C    1.482    10 C    1.350    16 H    0.962
                            12 C    0.105
    16   1 H    0.998 --    15 C    0.962
    17   1 H    0.997 --    13 C    0.969
    18   1 H    0.994 --    12 C    0.948
    19  77 Ir   5.194 --    63 B    0.870    42 B    0.856    21 B    0.710
                            86 C    0.597    20 H    0.532     1 N    0.446
                            11 N    0.429
    20   1 H    0.990 --    19 Ir   0.532    86 C    0.344
    21   5 B    3.273 --    33 O    1.108    22 O    1.096    19 Ir   0.710
    22   8 O    2.194 --    21 B    1.096    23 C    0.942
    23   6 C    3.943 --    24 C    0.996    28 C    0.990    22 O    0.942
                            32 C    0.941
    24   6 C    3.994 --    23 C    0.996    26 H    0.984    27 H    0.983
                            25 H    0.983
    25   1 H    0.997 --    24 C    0.983
    26   1 H    0.997 --    24 C    0.984
    27   1 H    0.997 --    24 C    0.983
    28   6 C    3.997 --    23 C    0.990    31 H    0.985    30 H    0.984
                            29 H    0.984
    29   1 H    0.997 --    28 C    0.984
    30   1 H    0.998 --    28 C    0.984
    31   1 H    0.999 --    28 C    0.985
    32   6 C    3.940 --    38 C    0.997    34 C    0.991    23 C    0.941
                            33 O    0.939
    33   8 O    2.197 --    21 B    1.108    32 C    0.939
    34   6 C    3.994 --    32 C    0.991    36 H    0.984    37 H    0.982
                            35 H    0.981
    35   1 H    0.997 --    34 C    0.981
    36   1 H    0.997 --    34 C    0.984
    37   1 H    0.997 --    34 C    0.982
    38   6 C    3.994 --    32 C    0.997    41 H    0.984    39 H    0.983
                            40 H    0.983
    39   1 H    0.998 --    38 C    0.983
    40   1 H    0.997 --    38 C    0.983
    41   1 H    0.997 --    38 C    0.984
    42   5 B    3.338 --    43 O    1.119    54 O    1.107    19 Ir   0.856
    43   8 O    2.229 --    42 B    1.119    44 C    0.937
    44   6 C    3.937 --    45 C    0.996    49 C    0.991    53 C    0.938
                            43 O    0.937
    45   6 C    3.992 --    44 C    0.996    48 H    0.983    47 H    0.982
                            46 H    0.982
    46   1 H    0.997 --    45 C    0.982
    47   1 H    0.997 --    45 C    0.982
    48   1 H    0.996 --    45 C    0.983
    49   6 C    3.994 --    44 C    0.991    50 H    0.983    51 H    0.983
                            52 H    0.980
    50   1 H    0.997 --    49 C    0.983
    51   1 H    0.998 --    49 C    0.983
    52   1 H    0.997 --    49 C    0.980
    53   6 C    3.937 --    55 C    0.996    59 C    0.992    44 C    0.938
                            54 O    0.934
    54   8 O    2.227 --    42 B    1.107    53 C    0.934
    55   6 C    3.993 --    53 C    0.996    58 H    0.983    57 H    0.983
                            56 H    0.983
    56   1 H    0.997 --    55 C    0.983
    57   1 H    0.997 --    55 C    0.983
    58   1 H    0.996 --    55 C    0.983
    59   6 C    3.994 --    53 C    0.992    62 H    0.983    61 H    0.983
                            60 H    0.979
    60   1 H    0.998 --    59 C    0.979
    61   1 H    0.996 --    59 C    0.983
    62   1 H    0.997 --    59 C    0.983
    63   5 B    3.361 --    75 O    1.117    64 O    1.113    19 Ir   0.870
    64   8 O    2.229 --    63 B    1.113    65 C    0.938
    65   6 C    3.937 --    70 C    0.996    66 C    0.991    74 C    0.938
                            64 O    0.938
    66   6 C    3.992 --    65 C    0.991    69 H    0.983    68 H    0.982
                            67 H    0.979
    67   1 H    0.997 --    66 C    0.979
    68   1 H    0.997 --    66 C    0.982
    69   1 H    0.996 --    66 C    0.983
    70   6 C    3.992 --    65 C    0.996    72 H    0.983    73 H    0.982
                            71 H    0.982
    71   1 H    0.996 --    70 C    0.982
    72   1 H    0.996 --    70 C    0.983
    73   1 H    0.997 --    70 C    0.982
    74   6 C    3.935 --    76 C    0.996    80 C    0.991    65 C    0.938
                            75 O    0.935
    75   8 O    2.233 --    63 B    1.117    74 C    0.935
    76   6 C    3.993 --    74 C    0.996    77 H    0.983    78 H    0.982
                            79 H    0.982
    77   1 H    0.996 --    76 C    0.983
    78   1 H    0.997 --    76 C    0.982
    79   1 H    0.997 --    76 C    0.982
    80   6 C    3.995 --    74 C    0.991    81 H    0.984    83 H    0.983
                            82 H    0.983
    81   1 H    0.998 --    80 C    0.984
    82   1 H    0.997 --    80 C    0.983
    83   1 H    0.996 --    80 C    0.983
    84   1 H    0.996 --     4 C    0.969
    85   1 H    0.997 --    14 C    0.969
    86   6 C    3.947 --    87 C    1.410    88 C    1.307    19 Ir   0.597
                            20 H    0.344
    87   6 C    3.986 --    86 C    1.410    89 C    1.390    90 H    0.963
    88   6 C    3.984 --    86 C    1.307    92 C    1.224    91 C    1.212
    89   6 C    3.979 --    93 N    1.443    87 C    1.390    94 H    0.964
    90   1 H    0.999 --    87 C    0.963
    91   6 C    3.959 --    93 N    1.333    88 C    1.212    95 N    1.201
    92   6 C    3.981 --    96 C    1.619    88 C    1.224    97 H    0.964
    93   7 N    3.035 --    89 C    1.443    91 C    1.333
    94   1 H    0.998 --    89 C    0.964
    95   7 N    3.541 --    91 C    1.201    96 C    1.184    98 H    0.926
    96   6 C    3.947 --    92 C    1.619    95 N    1.184    99 H    0.969
    97   1 H    0.997 --    92 C    0.964
    98   1 H    0.953 --    95 N    0.926
    99   1 H    0.997 --    96 C    0.969
 ---------------------------------------------------------------------------

Topologies differ in total number of bonds
Writing topology from bond orders to xtbtopo.mol

molecular dipole:
                 x           y           z       tot (Debye)
 q only:        1.144       0.374      -0.666
   full:       -0.095       0.636      -1.410       3.940
molecular quadrupole (traceless):
                xx          xy          yy          xz          yz          zz
 q only:       12.823      -3.110      -6.869      18.207      11.161      -5.954
  q+dip:       17.310      -1.781      -7.309      20.327      16.763     -10.000
   full:       14.783      -0.881      -4.561      18.195      14.180     -10.222


           -------------------------------------------------
          | TOTAL ENERGY             -144.451977449730 Eh   |
          | GRADIENT NORM               0.033301056090 Eh/α |
          | HOMO-LUMO GAP               0.900905095546 eV   |
           -------------------------------------------------

------------------------------------------------------------------------
 * finished run on 2022/01/14 at 13:19:21.770     
------------------------------------------------------------------------
 total:
 * wall-time:     0 d,  0 h,  0 min,  0.117 sec
 *  cpu-time:     0 d,  0 h,  0 min,  0.679 sec
 * ratio c/w:     5.812 speedup
 SCF:
 * wall-time:     0 d,  0 h,  0 min,  0.087 sec
 *  cpu-time:     0 d,  0 h,  0 min,  0.517 sec
 * ratio c/w:     5.960 speedup

