99
 energy: -144.431281746282 gnorm: 0.079573873474 xtb: 6.4.1 (1a32961)
N        -0.96510000000000   -2.11530000000000   -0.24090000000000
C        -2.24700000000000   -1.69840000000000   -0.36220000000000
C        -3.14040000000000   -2.36820000000000   -1.21200000000000
C        -2.70220000000000   -3.47560000000000   -1.93050000000000
C        -1.37780000000000   -3.89880000000000   -1.78760000000000
C        -0.54290000000000   -3.18670000000000   -0.93510000000000
H         0.49810000000000   -3.45630000000000   -0.78940000000000
H        -0.99570000000000   -4.76030000000000   -2.32770000000000
H        -4.16500000000000   -2.02890000000000   -1.31830000000000
C        -2.62130000000000   -0.50950000000000    0.44100000000000
N        -1.62600000000000    0.07330000000000    1.16020000000000
C        -1.89680000000000    1.15240000000000    1.91690000000000
C        -3.17230000000000    1.70330000000000    1.99650000000000
C        -4.20510000000000    1.11740000000000    1.26270000000000
C        -3.92610000000000    0.00250000000000    0.47820000000000
H        -4.71960000000000   -0.46420000000000   -0.09520000000000
H        -3.34630000000000    2.57510000000000    2.62070000000000
H        -1.04450000000000    1.57420000000000    2.43690000000000
Ir        0.42150000000000   -0.81650000000000    0.91330000000000
H         0.87260000000000   -2.23030000000000    1.54050000000000
B         0.50670000000000    0.41560000000000   -0.81540000000000
O         0.19500000000000   -0.04700000000000   -2.09150000000000
C         0.00650000000000    1.10040000000000   -2.95430000000000
C         0.49020000000000    0.74740000000000   -4.35780000000000
H         1.51610000000000    0.37380000000000   -4.33700000000000
H         0.44730000000000    1.62240000000000   -5.01670000000000
H        -0.14740000000000   -0.03390000000000   -4.78430000000000
C        -1.50120000000000    1.39560000000000   -2.96670000000000
H        -1.75370000000000    2.21460000000000   -3.64850000000000
H        -2.03200000000000    0.49450000000000   -3.28930000000000
H        -1.85170000000000    1.65210000000000   -1.96220000000000
C         0.84230000000000    2.20670000000000   -2.22040000000000
O         0.75200000000000    1.78260000000000   -0.83690000000000
C         2.32930000000000    2.18620000000000   -2.59900000000000
H         2.74130000000000    1.18500000000000   -2.45750000000000
H         2.48870000000000    2.51300000000000   -3.63180000000000
H         2.87200000000000    2.86270000000000   -1.93200000000000
C         0.28440000000000    3.62290000000000   -2.33660000000000
H        -0.72650000000000    3.69040000000000   -1.92910000000000
H         0.92130000000000    4.31480000000000   -1.77610000000000
H         0.26430000000000    3.94810000000000   -3.38320000000000
B         1.56300000000000    0.60960000000000    1.84840000000000
O         2.92780000000000    0.55230000000000    2.15020000000000
C         3.36330000000000    1.88660000000000    2.50260000000000
C         4.53140000000000    1.78590000000000    3.47740000000000
H         4.27910000000000    1.16090000000000    4.33690000000000
H         5.39390000000000    1.33790000000000    2.97340000000000
H         4.82390000000000    2.77870000000000    3.83820000000000
C         3.79700000000000    2.56850000000000    1.19670000000000
H         4.20020000000000    3.57090000000000    1.37680000000000
H         4.56740000000000    1.95560000000000    0.72110000000000
H         2.95240000000000    2.63260000000000    0.50540000000000
C         2.05040000000000    2.50090000000000    3.09320000000000
O         1.03750000000000    1.81620000000000    2.31910000000000
C         1.89100000000000    4.00450000000000    2.88650000000000
H         1.87290000000000    4.25440000000000    1.82410000000000
H         0.94940000000000    4.34260000000000    3.33170000000000
H         2.71080000000000    4.55150000000000    3.36630000000000
C         1.82470000000000    2.13200000000000    4.56520000000000
H         1.92610000000000    1.05330000000000    4.71320000000000
H         2.52610000000000    2.65280000000000    5.22540000000000
H         0.80630000000000    2.41580000000000    4.84900000000000
B         2.27820000000000   -1.33090000000000    0.17410000000000
O         2.89460000000000   -2.57740000000000    0.38450000000000
C         4.26930000000000   -2.48200000000000   -0.07210000000000
C         5.10900000000000   -2.05380000000000    1.14010000000000
H         4.76350000000000   -1.08740000000000    1.51750000000000
H         4.98050000000000   -2.79470000000000    1.93590000000000
H         6.17420000000000   -1.99290000000000    0.89300000000000
C         4.71950000000000   -3.84660000000000   -0.58470000000000
H         4.75280000000000   -4.56130000000000    0.24420000000000
H         5.72330000000000   -3.78370000000000   -1.02010000000000
H         4.03500000000000   -4.23600000000000   -1.34170000000000
C         4.16440000000000   -1.36220000000000   -1.16300000000000
O         3.08520000000000   -0.55030000000000   -0.65400000000000
C         5.40720000000000   -0.48870000000000   -1.31550000000000
H         6.27320000000000   -1.09010000000000   -1.61530000000000
H         5.23300000000000    0.26930000000000   -2.08590000000000
H         5.64270000000000    0.02650000000000   -0.38240000000000
C         3.71800000000000   -1.89830000000000   -2.53110000000000
H         2.82530000000000   -2.52160000000000   -2.42740000000000
H         3.46090000000000   -1.05250000000000   -3.17550000000000
H         4.50570000000000   -2.48290000000000   -3.01790000000000
H        -3.38500000000000   -4.00130000000000   -2.59310000000000
H        -5.21400000000000    1.52080000000000    1.29960000000000
C         0.23590000000000   -1.68140000000000    2.96030000000000
C        -0.97487977390275   -2.15652090440484    3.46060905260350
C         1.31237065231729   -1.83220138042675    3.86243558122708
C        -1.08825629408134   -2.63669984039027    4.76450291388575
H        -1.85837542443842   -2.19886555239755    2.83682517067887
C         1.08267937919212   -2.31215775908176    5.17070309473221
C         2.72487787820261   -1.69316352683405    3.75366083499784
N        -0.09437289984691   -2.72343298009933    5.64559388558061
H        -2.03526205813077   -3.02360263047015    5.12522094236276
N         2.27422970219279   -2.39812993311705    5.82726373592260
C         3.26980447359814   -2.02986427492813    4.95783384121034
H         3.24149651079194   -1.38020987935097    2.87089361915322
H         2.40560061257194   -2.73978163019701    6.76490277443087
H         4.30223441693866   -2.03573063444548    5.26276286970525
99
 energy: -144.439199908916 gnorm: 0.049440901155 xtb: 6.4.1 (1a32961)
N        -0.96051794009015   -2.10029300556786   -0.25174941704850
C        -2.23943795088023   -1.69126716078120   -0.36317685904017
C        -3.13414722490570   -2.36346368023153   -1.20514855561908
C        -2.70355723430473   -3.46446966522237   -1.92135306454716
C        -1.38327449079536   -3.88310841713049   -1.78243136778685
C        -0.55306354696508   -3.16824575381304   -0.94115195502564
H         0.48089956782880   -3.44806337971449   -0.79199248738685
H        -1.00667334649653   -4.74291032827724   -2.31804808331639
H        -4.15484951379975   -2.02832354959763   -1.30895399310303
C        -2.61098270210365   -0.51489855285693    0.43721098887001
N        -1.61835732893172    0.06542939647479    1.14894321578179
C        -1.89729990535772    1.13687142949191    1.89602340914164
C        -3.16429060039909    1.68580346685448    1.98426991566775
C        -4.19580868764925    1.10146760479414    1.25756971219973
C        -3.91418041470318   -0.00482022908203    0.47714802243948
H        -4.70568749343648   -0.46822986490727   -0.09175348562449
H        -3.33943791785094    2.54889738998275    2.61125815692160
H        -1.05434051026905    1.55579787010083    2.42488758730841
Ir        0.42150000000000   -0.81650000000000    0.91330000000000
H         0.87260000000000   -2.23030000000000    1.54050000000000
B         0.49028932382795    0.42547939782583   -0.79019083812192
O         0.17545245529297   -0.03423958973612   -2.06260753532092
C         0.00949406865809    1.09741268095617   -2.94329243148371
C         0.48829136681888    0.74813360909388   -4.34846514121644
H         1.50750345078958    0.37194993828627   -4.32757895054879
H         0.44286684405894    1.62359290745901   -4.99692547405715
H        -0.15019615449332   -0.02808151008889   -4.76896057718569
C        -1.49497929658585    1.39886463589100   -2.96871668433822
H        -1.73458995139582    2.21188578598407   -3.65239324338665
H        -2.02483734712722    0.50155122680922   -3.28859540272210
H        -1.84164021556164    1.65323232280466   -1.96688400440927
C         0.83112935150004    2.20774457666600   -2.21252852043069
O         0.75474964895058    1.78129188400560   -0.83534598513714
C         2.31381703104486    2.19179997592012   -2.59985912230414
H         2.71851425275937    1.19275110133166   -2.45039869655083
H         2.46553675828403    2.51358371839610   -3.62948510501893
H         2.85590662121996    2.86641119961875   -1.93815469178621
C         0.27897814174826    3.62364732944042   -2.33877322993092
H        -0.72432786299354    3.69190973876828   -1.92627710380863
H         0.91826057018612    4.30731249297424   -1.78165516436557
H         0.26093500775839    3.93676524877208   -3.38278720832761
B         1.56044056679466    0.62842172812815    1.84897572839730
O         2.92614099510151    0.59201914849589    2.10410628969976
C         3.36244369304539    1.90382924508438    2.50200052993166
C         4.53041939437492    1.79260495263434    3.47459488982552
H         4.27392524930000    1.15915375562846    4.31998271714744
H         5.38535063978565    1.34800089420979    2.96700528097160
H         4.81611778156680    2.77965389693789    3.83717118750271
C         3.80067049664988    2.58968871731536    1.20516761834742
H         4.20346109956273    3.58396646508231    1.38984997418098
H         4.56338903288945    1.97407161048322    0.73065053344459
H         2.95224923714458    2.63988398514701    0.52401962375812
C         2.05073914771544    2.51053247100466    3.08903984690155
O         1.03582193752073    1.81665689658356    2.33663407617718
C         1.89099260320583    4.01212665882145    2.89131122879425
H         1.86549935855585    4.25555653668364    1.83291986018702
H         0.95352384448399    4.33979547474307    3.33858780181584
H         2.71230441181321    4.54700920880655    3.36744570790893
C         1.83306258387811    2.13925153093991    4.56033254890455
H         1.93793041553911    1.06294597606961    4.69422995317317
H         2.53382410792168    2.65954687653813    5.21072532120000
H         0.81834081164588    2.41519557804889    4.84727337560459
B         2.27820000000000   -1.33090000000000    0.17410000000000
O         2.90390763247157   -2.56056817709947    0.38915165087838
C         4.26791706260701   -2.48271407833861   -0.08221044204468
C         5.12262118019138   -2.05870729155661    1.11672361168863
H         4.78111033993460   -1.09083539801415    1.48007109531786
H         4.98788482781931   -2.78864514016330    1.91468447473673
H         6.17945274151498   -2.00588365684950    0.86183119583085
C         4.72109224714515   -3.84538910899304   -0.59116710854866
H         4.75102195711218   -4.54866502298320    0.23983185643169
H         5.71857211784071   -3.77425742133356   -1.02408870206814
H         4.03452335026215   -4.23305138495902   -1.33889096373024
C         4.16598203098351   -1.35847950462960   -1.16043120822013
O         3.07391420407648   -0.56270660478494   -0.66169487480829
C         5.40899401401500   -0.48965600054926   -1.31759282863245
H         6.26525064927351   -1.09502565837104   -1.61389173272068
H         5.23026648790535    0.26187659667495   -2.08533978273763
H         5.63708482102800    0.02457436855275   -0.38841851378209
C         3.72798379585950   -1.89752335459917   -2.52813152573634
H         2.83632814301974   -2.51354930795548   -2.41907133322348
H         3.46998804890638   -1.05594063265263   -3.16962216373451
H         4.51787621520123   -2.47438464868345   -3.00637699054611
H        -3.38282990431996   -3.98930645756927   -2.57944583748073
H        -5.19999269911157    1.50240137976568    1.29835257474464
C         0.23590000000000   -1.68139999999999    2.96030000000000
C        -0.98098585176539   -2.14220733398693    3.45924979853634
C         1.30700180604569   -1.83236083993014    3.86713430914083
C        -1.10230750835061   -2.61773381810200    4.76608516791932
H        -1.86374235006539   -2.17695942371146    2.83478988824889
C         1.06473030871076   -2.30990049883046    5.17976824985917
C         2.71966690788479   -1.70079059782668    3.76492924891346
N        -0.11599617217932   -2.71057981298803    5.64708483744088
H        -2.05326534818367   -2.99542238820552    5.12332737352789
N         2.25370188338644   -2.40196197039294    5.83658382589333
C         3.25397149547881   -2.03971412728429    4.96811620846817
H         3.23743843261376   -1.39154367460167    2.88728357228452
H         2.38083203893276   -2.74309423470998    6.77373147074973
H         4.28315171896150   -2.05182899349709    5.27530945404745
99
 energy: -144.442163610979 gnorm: 0.038669595815 xtb: 6.4.1 (1a32961)
N        -0.95105955677607   -2.09278193256417   -0.25988153375249
C        -2.22845483948077   -1.68622274049490   -0.36472067338395
C        -3.12840150884286   -2.35808397232776   -1.20076557072234
C        -2.70602936023005   -3.45547894187637   -1.91828103968364
C        -1.38576498518749   -3.87356688463539   -1.78400615827909
C        -0.55604670175841   -3.15848797561706   -0.94830106636143
H         0.47665401687246   -3.44200034270067   -0.80753459820923
H        -1.01486896238208   -4.73271598077595   -2.31782882699926
H        -4.14808715197498   -2.02497995459311   -1.29565526711400
C        -2.59667192196459   -0.51974446363794    0.43189187012723
N        -1.60682959794611    0.05619096195928    1.14472636504141
C        -1.89326937187248    1.12130840893136    1.88737616589233
C        -3.15576342733432    1.67014355554040    1.97894388728667
C        -4.18765451374031    1.08610986914211    1.25281018634476
C        -3.90096361176968   -0.01268334361842    0.47204806539643
H        -4.68978839248194   -0.47797158016423   -0.09428260242514
H        -3.33197195897246    2.52820625887984    2.60667656745691
H        -1.05630711645706    1.54579472896124    2.41790713148605
Ir        0.42150000000000   -0.81650000000000    0.91330000000000
H         0.87260000000000   -2.23030000000000    1.54050000000000
B         0.49204049828793    0.43788627864974   -0.76692164299593
O         0.15482141487351   -0.02264906498854   -2.03178541098605
C         0.00357273885441    1.09590432686004   -2.92293136868315
C         0.48639898599459    0.74260616276128   -4.32616459476470
H         1.50201020295377    0.36358775850316   -4.30719810413772
H         0.43986721436586    1.62146755747384   -4.96404652354483
H        -0.15570648199100   -0.02757096165971   -4.74514619798231
C        -1.49934057912644    1.40579249741946   -2.96714170516284
H        -1.72150926194910    2.21502014316283   -3.65581676031797
H        -2.02792903050944    0.51062274530791   -3.28787120367265
H        -1.84786096983978    1.66254333067641   -1.96899043838031
C         0.82127479494035    2.20920828853881   -2.19935955692947
O         0.75695653932701    1.78718393652385   -0.82722305307149
C         2.30127182182550    2.19905071728674   -2.59747844422957
H         2.70303747939276    1.20168738326816   -2.44121344839959
H         2.43957941498495    2.51382064239516   -3.62773975038760
H         2.84303217866181    2.87784401944013   -1.94376941442776
C         0.26624097503487    3.62348971728962   -2.33452391375890
H        -0.73267939899548    3.69676201613231   -1.91825403413260
H         0.91043555871859    4.30529748068645   -1.78630647406228
H         0.24870873654294    3.92045683929806   -3.37952938964742
B         1.56124052969174    0.64489351218412    1.84593239119704
O         2.92325767187733    0.61820075489840    2.06836952551851
C         3.35934698354461    1.91542868675475    2.49297308473937
C         4.52306814925755    1.79505798403345    3.47067019305225
H         4.26511751806523    1.15222439314746    4.30522164243467
H         5.37534897240161    1.35852696225993    2.95799391665210
H         4.80069495850276    2.77870818133066    3.83801250969233
C         3.80607799540069    2.62638175911465    1.21207066341994
H         4.20679691454211    3.61590960147231    1.40532327176017
H         4.56679845597122    2.01272904375269    0.73704422966285
H         2.95747795519259    2.67158941393443    0.53431067194417
C         2.05085874421843    2.51671463907883    3.08680835070045
O         1.03530589159539    1.81497156510126    2.35227827443366
C         1.88801322443250    4.01885386181540    2.89417113015830
H         1.85341489249911    4.26305456677779    1.83863392037877
H         0.95591125253030    4.34063518844861    3.34957660396873
H         2.71299968539174    4.54426985563994    3.36578401950956
C         1.84833899620857    2.14709803589664    4.56162407302743
H         1.95800602058506    1.07186594856386    4.68401446305012
H         2.55094078153607    2.66940938388294    5.20242491823621
H         0.83540007339769    2.41588418580000    4.85260765974259
B         2.27820000000001   -1.33090000000000    0.17410000000001
O         2.91263340359615   -2.54486855502007    0.40001588030072
C         4.26445586813847   -2.47835546727793   -0.08904707518892
C         5.14086174238103   -2.05935560063712    1.09575050325387
H         4.81038844697150   -1.08663609233963    1.45046529822767
H         5.00461289005908   -2.78088088249252    1.89708409978257
H         6.19052006692892   -2.02152898135988    0.82307489839070
C         4.71327436341778   -3.84169123463960   -0.60160761575426
H         4.74653267551573   -4.53691311998127    0.23193729795070
H         5.70589748579865   -3.76269690319741   -1.03492378311028
H         4.02513265562602   -4.23171554133727   -1.34279119530222
C         4.16008570638310   -1.35550571370984   -1.16379230996562
O         3.05899548430870   -0.57213366241616   -0.67325241029403
C         5.40338754857065   -0.48664659779878   -1.31818930116251
H         6.25202148883798   -1.09868060739909   -1.60913541587244
H         5.22504886652169    0.25804531397249   -2.08833026840542
H         5.62831450357311    0.03009038469331   -0.39264759407300
C         3.73599818254479   -1.89765382942690   -2.53489252965132
H         2.84619595899303   -2.51156857360339   -2.42350223051831
H         3.48020992602195   -1.05820237982476   -3.17625459906556
H         4.53233730188108   -2.46924547951964   -3.00049463750562
H        -3.38673678963954   -3.98067984774442   -2.56978739442401
H        -5.19058414246246    1.48196190003235    1.29801953400650
C         0.23590000000000   -1.68139999999999    2.96030000000001
C        -0.99189332536779   -2.11870543144645    3.45424804574465
C         1.29793035864190   -1.82979673688541    3.87470655199902
C        -1.12799217179181   -2.58371598143588    4.76489939930685
H        -1.87262737821743   -2.14223441047905    2.82682629158904
C         1.03919210958181   -2.30320449517532    5.19030208228085
C         2.71123299796807   -1.70031136057606    3.78358894077175
N        -0.14918094873747   -2.68687822309308    5.64811877347445
H        -2.08813492281186   -2.94196022903885    5.11785595526167
N         2.22358830645824   -2.40561025725979    5.85086952256439
C         3.23217867584235   -2.04986899466870    4.98812463100982
H         3.23342038164295   -1.38947837399471    2.90991006152504
H         2.34230086367305   -2.74773018710269    6.78837672431441
H         4.25794113961707   -2.07422286673968    5.30216933161871
99
 energy: -144.443890203263 gnorm: 0.037580423661 xtb: 6.4.1 (1a32961)
N        -0.93869023287754   -2.08991269471344   -0.27124182210273
C        -2.21739149292093   -1.68450866674872   -0.36865333519318
C        -3.12348206870892   -2.35705685807292   -1.19895311632113
C        -2.70773154462388   -3.45379566827337   -1.91879936437994
C        -1.38487800333718   -3.87099094933910   -1.79269413630211
C        -0.55075466341802   -3.15433194113921   -0.96305475412530
H         0.48217252710378   -3.44166429814021   -0.82962752032463
H        -1.01871789111692   -4.73066543745894   -2.32716858129163
H        -4.14340148673333   -2.02316992361215   -1.28516224500146
C        -2.58349906224434   -0.52333380570402    0.42761000518519
N        -1.59427850862534    0.05257945425404    1.14179767564951
C        -1.88577810759569    1.11531379582273    1.88397486911463
C        -3.14877171368578    1.66065778776648    1.97886431956670
C        -4.18136062181885    1.07458147782228    1.25212949224740
C        -3.88992656729388   -0.01941252440953    0.46884656932789
H        -4.67569116338219   -0.48629800358069   -0.09974269633839
H        -3.32708637188692    2.51498771208719    2.60934522908440
H        -1.05331108681472    1.54236466656385    2.41984096613111
Ir        0.42150000000000   -0.81650000000000    0.91330000000000
H         0.87260000000000   -2.23030000000000    1.54050000000000
B         0.47684046875373    0.45554745703137   -0.74435414046613
O         0.12968570111492   -0.01131936808691   -2.00400917540324
C        -0.00783445574332    1.09726019148551   -2.90270992749621
C         0.48243250375894    0.73427830394219   -4.30188043261237
H         1.49556268748107    0.35000100237698   -4.27794731926049
H         0.44174533391503    1.61391098388511   -4.93794993234903
H        -0.16289856662507   -0.03257392606496   -4.72095640026263
C        -1.50962129083504    1.41551295181334   -2.96476081325173
H        -1.71580695387930    2.22250324427332   -3.65989632884447
H        -2.03838126613460    0.52168369759002   -3.28759943967714
H        -1.86645451876923    1.67826547383472   -1.97149940879127
C         0.81003335365281    2.21374804291623   -2.18439744792596
O         0.75625986620906    1.79895526824016   -0.81389770441678
C         2.28812776556776    2.20671238975581   -2.59355949693739
H         2.69235327132711    1.21163005030375   -2.43069027879345
H         2.41511894283280    2.51308418079459   -3.62709800167313
H         2.83095104940325    2.89343201009424   -1.94962930575176
C         0.25247883647526    3.62735121129163   -2.32771936651146
H        -0.74386109311272    3.70441331992364   -1.90687427055379
H         0.90068845987603    4.31338921527314   -1.79019124345962
H         0.23018499886437    3.91049204331289   -3.37589342455933
B         1.56134078664125    0.65507196201724    1.84588623652617
O         2.92461676077385    0.64147450417078    2.03410673461122
C         3.35704445568136    1.92913466697352    2.48279846790926
C         4.51951232447463    1.79572837656748    3.46241951639362
H         4.26050628365275    1.13995823507443    4.28609975622970
H         5.37367510481851    1.36966766687510    2.94471252088428
H         4.79030423386582    2.77564947385030    3.84319399189814
C         3.80980799186100    2.66540246765505    1.21606372250079
H         4.20491888557971    3.65232714037275    1.42919496081653
H         4.57626593135564    2.06273375784313    0.73629998440266
H         2.96441724927235    2.71791198565683    0.53543538480433
C         2.04891794163048    2.52173404533118    3.08754616558743
O         1.03116507472129    1.81171911021944    2.36888169358440
C         1.88021118016233    4.02488985081830    2.89769697664126
H         1.83404184941564    4.27216104761762    1.84344696242543
H         0.95324110605092    4.34366294994558    3.36480294196171
H         2.71046218567993    4.54723443216795    3.36215658832714
C         1.86453604664059    2.15449634432648    4.56670511105589
H         1.98108469692428    1.07999912386414    4.68548799649096
H         2.57134191680704    2.68170044636034    5.19751175332337
H         0.85300478809512    2.41772488408194    4.86602203589950
B         2.27820000000001   -1.33090000000000    0.17410000000001
O         2.92129680320036   -2.53335537483691    0.41404975401044
C         4.26221375494702   -2.47349275760286   -0.09475991333910
C         5.16068549795762   -2.05844471719798    1.07666254657734
H         4.84537740140995   -1.08034166740651    1.42989336487142
H         5.02662080625034   -2.77400225367815    1.88266750949106
H         6.20566287077748   -2.03612359157314    0.78530959069218
C         4.70271251181058   -3.83958080409265   -0.61138332529320
H         4.74190114124851   -4.53209481965519    0.22359257334640
H         5.69139456031309   -3.75861275027725   -1.05170811012539
H         4.00888951004398   -4.23016816716836   -1.34648516317828
C         4.15254114821095   -1.35266479681766   -1.17095559173410
O         3.04345911400877   -0.57821210773740   -0.68927641961749
C         5.39429372114600   -0.47941756606765   -1.32213482013155
H         6.24234418852253   -1.09499992561052   -1.60524045995104
H         5.21858836092640    0.25983068794796   -2.09744690265976
H         5.61458337793571    0.04215442344109   -0.39866837967988
C         3.74260674979391   -1.89914622910730   -2.54569638121727
H         2.85429861232337   -2.51509388990807   -2.43906823325911
H         3.49094434640292   -1.06132217294801   -3.19022307124674
H         4.54663959378769   -2.46780762515250   -2.99982109433821
H        -3.39233464970639   -3.97886931279139   -2.56547696441340
H        -5.18537861256885    1.46567973824654    1.30018511886426
C         0.23590000000000   -1.68139999999997    2.96030000000001
C        -1.00466274936640   -2.09133025839021    3.44665388097872
C         1.28669803726126   -1.82743684961746    3.88459966827520
C        -1.16019388177559   -2.54010537818366    4.76154394159691
H        -1.88139717254013   -2.10379063389450    2.81346225492064
C         1.00975843533706   -2.29525007551698    5.20071500739817
C         2.70157831863034   -1.70381660814990    3.80696244964281
N        -0.18877314644515   -2.65604561069122    5.65009457274161
H        -2.13221790463753   -2.87184483870604    5.11046431241460
N         2.18760786060805   -2.40902616646882    5.86952673008885
C         3.20698797101126   -2.05890259721738    5.01699371853642
H         3.23172125622366   -1.39063995542952    2.93748108028664
H         2.29441771989089   -2.75036943002973    6.80901763307365
H         4.22886591437322   -2.09390182350820    5.34248724709914
99
 energy: -144.445566782684 gnorm: 0.036831501847 xtb: 6.4.1 (1a32961)
N        -0.92536451266617   -2.09100662449355   -0.28338885319165
C        -2.20608781202197   -1.68571289887195   -0.37408418259112
C        -3.11729378908512   -2.35917861374001   -1.19981568564387
C        -2.70677404312867   -3.45560865122681   -1.92275426949422
C        -1.38096371833191   -3.87116355486786   -1.80623440331230
C        -0.54138422163762   -3.15381991003117   -0.98134298560820
H         0.49367786051603   -3.44101067416392   -0.85898061945646
H        -1.01837091784244   -4.73052702275616   -2.34426784978375
H        -4.13818641018478   -2.02463406271386   -1.27693495873244
C        -2.57083566769697   -0.52702492430362    0.42361395726379
N        -1.58207246180058    0.04794461082099    1.14259849431442
C        -1.87730840271125    1.10992288362390    1.88672747611202
C        -3.14177338864263    1.65216435124868    1.98217291943364
C        -4.17421894859044    1.06553354190611    1.25252469230382
C        -3.87853329637416   -0.02376177103477    0.46475417701470
H        -4.66138087296664   -0.49160398033488   -0.10781006346078
H        -3.32226171616200    2.50376139224053    2.61599728783947
H        -1.04752854169827    1.54045077045515    2.42500932087030
Ir        0.42150000000000   -0.81650000000000    0.91330000000001
H         0.87260000000000   -2.23030000000000    1.54050000000000
B         0.47610872424618    0.47327337342570   -0.72295367584651
O         0.10075993221237    0.00288746936549   -1.97404326116453
C        -0.02502494365679    1.10234258234705   -2.87929260160641
C         0.47420695827746    0.72315505426869   -4.27214664917728
H         1.48394510496174    0.32944312361491   -4.23588208283484
H         0.44701616075356    1.59914728972852   -4.91481504765925
H        -0.17469364369222   -0.04156988433831   -4.69070778765628
C        -1.52505638439327    1.43071805235744   -2.96073002877851
H        -1.71559693473089    2.23508535405215   -3.66392643390429
H        -2.05559124817555    0.53834121985038   -3.28569799558082
H        -1.89464055004446    1.70276501736270   -1.97410321836153
C         0.79708671947114    2.22303075209160   -2.16845636923435
O         0.75584111202936    1.81447267234337   -0.79819647749762
C         2.27326339202490    2.21906557794411   -2.58853826308107
H         2.68382211877070    1.22766398640326   -2.41656829457157
H         2.38948294541160    2.51349200513079   -3.62711819848260
H         2.81735377777243    2.91744787462390   -1.95742877244286
C         0.23416588576833    3.63503615670478   -2.31830965755385
H        -0.75903774096406    3.71473815669343   -1.88933701294810
H         0.88635563618127    4.32926232844927   -1.79493635257606
H         0.20107978346922    3.90602816848195   -3.37001418845347
B         1.56345245718251    0.66391534378696    1.84072702626899
O         2.92848506649076    0.66530581772441    1.99784954388630
C         3.35705368722184    1.94531744185938    2.47013044858185
C         4.51936227711404    1.79491743755002    3.44935342586259
H         4.26099722812008    1.11978574849016    4.25837322650667