      -----------------------------------------------------------      
     |                   =====================                   |     
     |                           x T B                           |     
     |                   =====================                   |     
     |                         S. Grimme                         |     
     |          Mulliken Center for Theoretical Chemistry        |     
     |                    University of Bonn                     |     
      -----------------------------------------------------------      

   * xtb version 6.4.1 (1a32961) compiled by 'knkr256@seskscpg007.prim.scp' on 2021-10-19

   xtb is free software: you can redistribute it and/or modify it under
   the terms of the GNU Lesser General Public License as published by
   the Free Software Foundation, either version 3 of the License, or
   (at your option) any later version.
   
   xtb is distributed in the hope that it will be useful,
   but WITHOUT ANY WARRANTY; without even the implied warranty of
   MERCHANTABILITY or FITNESS FOR A PARTICULAR PURPOSE.  See the
   GNU Lesser General Public License for more details.
   
   Cite this work as:
   * C. Bannwarth, E. Caldeweyher, S. Ehlert, A. Hansen, P. Pracht,
     J. Seibert, S. Spicher, S. Grimme, WIREs Comput. Mol. Sci., 2020, 11,
     e01493. DOI: 10.1002/wcms.1493
   
   for GFN2-xTB:
   * C. Bannwarth, S. Ehlert and S. Grimme., J. Chem. Theory Comput., 2019,
     15, 1652-1671. DOI: 10.1021/acs.jctc.8b01176
   for GFN1-xTB:
   * S. Grimme, C. Bannwarth, P. Shushkov, J. Chem. Theory Comput., 2017,
     13, 1989-2009. DOI: 10.1021/acs.jctc.7b00118
   for GFN0-xTB:
   * P. Pracht, E. Caldeweyher, S. Ehlert, S. Grimme, ChemRxiv, 2019, preprint.
     DOI: 10.26434/chemrxiv.8326202.v1
   for GFN-FF:
   * S. Spicher and S. Grimme, Angew. Chem. Int. Ed., 2020, 59, 15665-15673.
     DOI: 10.1002/anie.202004239
   
   for ALPB and GBSA implicit solvation:
   * S. Ehlert, M. Stahn, S. Spicher, S. Grimme, J. Chem. Theory Comput.,
     2021, 17, 4250-4261. DOI: 10.1021/acs.jctc.1c00471
   
   for DFT-D4:
   * E. Caldeweyher, C. Bannwarth and S. Grimme, J. Chem. Phys., 2017,
     147, 034112. DOI: 10.1063/1.4993215
   * E. Caldeweyher, S. Ehlert, A. Hansen, H. Neugebauer, S. Spicher,
     C. Bannwarth and S. Grimme, J. Chem. Phys., 2019, 150, 154122.
     DOI: 10.1063/1.5090222
   * E. Caldeweyher, J.-M. Mewes, S. Ehlert and S. Grimme, Phys. Chem. Chem. Phys.
     2020, 22, 8499-8512. DOI: 10.1039/D0CP00502A
   
   for sTDA-xTB:
   * S. Grimme and C. Bannwarth, J. Chem. Phys., 2016, 145, 054103.
     DOI: 10.1063/1.4959605
   
   in the mass-spec context:
   * V. Asgeirsson, C. Bauer and S. Grimme, Chem. Sci., 2017, 8, 4879.
     DOI: 10.1039/c7sc00601b
   * J. Koopman and S. Grimme, ACS Omega 2019, 4, 12, 15120-15133.
     DOI: 10.1021/acsomega.9b02011
   
   for metadynamics refer to:
   * S. Grimme, J. Chem. Theory Comput., 2019, 155, 2847-2862
     DOI: 10.1021/acs.jctc.9b00143
   
   for SPH calculations refer to:
   * S. Spicher and S. Grimme, J. Chem. Theory Comput., 2021, 17, 1701-1714
     DOI: 10.1021/acs.jctc.0c01306
   
   with help from (in alphabetical order)
   P. Atkinson, C. Bannwarth, F. Bohle, G. Brandenburg, E. Caldeweyher
   M. Checinski, S. Dohm, S. Ehlert, S. Ehrlich, I. Gerasimov, J. Koopman
   C. Lavigne, S. Lehtola, F. März, M. Müller, F. Musil, H. Neugebauer
   J. Pisarek, C. Plett, P. Pracht, J. Seibert, P. Shushkov, S. Spicher
   M. Stahn, M. Steiner, T. Strunk, J. Stückrath, T. Rose, and J. Unsleber
   
 * started run on 2022/01/14 at 15:28:13.004     

           -------------------------------------------------
          |                Calculation Setup                |
           -------------------------------------------------

          program call               : xtb xtbopt.xyz --sp --alpb thf -P 6
          hostname                   : seskscpg007.prim.scp
          coordinate file            : xtbopt.xyz
          omp threads                :                     6
          number of atoms            :                    96
          number of electrons        :                   262
          charge                     :                     0
          spin                       :                   0.0
          first test random number   :      0.04505845337639

   ID    Z sym.   atoms
    1    7 N      1, 11
    2    6 C      2-6, 10, 12-15, 23, 24, 28, 32, 34, 38, 44, 45, 49, 53, 55,
                  59, 65, 66, 70, 74, 76, 80, 86-89, 91, 94
    3    1 H      7-9, 16-18, 20, 25-27, 29-31, 35-37, 39-41, 46-48, 50-52,
                  56-58, 60-62, 67-69, 71-73, 77-79, 81-85, 90, 95, 96
    4   77 Ir     19
    5    5 B      21, 42, 63
    6    8 O      22, 33, 43, 54, 64, 75
    7   17 Cl     92
    8    9 F      93

molecular fragmentation (1/2 indicates fragments):
111111111111111111111111111111111111111111111111111111111111111111111111
111111111111122222222222
# atoms in fragment 1/2:    85    11
 fragment masses (1/2) :      730.32      129.54
CMA distance (Bohr)    :   8.365
constraining FC (au)   :  0.0500

           -------------------------------------------------
          |                 G F N 2 - x T B                 |
           -------------------------------------------------

        Reference                      10.1021/acs.jctc.8b01176
      * Hamiltonian:
        H0-scaling (s, p, d)           1.850000    2.230000    2.230000
        zeta-weighting                 0.500000
      * Dispersion:
        s8                             2.700000
        a1                             0.520000
        a2                             5.000000
        s9                             5.000000
      * Repulsion:
        kExp                           1.500000    1.000000
        rExp                           1.000000
      * Coulomb:
        alpha                          2.000000
        third order                    shell-resolved
        anisotropic                    true
        a3                             3.000000
        a5                             4.000000
        cn-shift                       1.200000
        cn-exp                         4.000000
        max-rad                        5.000000

      * Solvation model:               ALPB
        Solvent                        thf
        Parameter file                 internal GFN2-xTB/ALPB
        Dielectric constant                7.6000E+00
        Reference state                gsolv [1 M gas/solution]
        Free energy shift                  5.3248E-03 Eh       3.3414E+00 kcal/mol
        Temperature                        2.9815E+02 K
        Density                            8.8300E-01 kg/L
        Solvent mass                       7.2106E+01 g/mol
        Interaction kernel             P16
        Born radius scaling (c1)           1.7311E+00
        Born radii integrator          GBOBC
        Born offset                        0.0000E+00 a0       0.0000E+00 AA
        H-bond correction              true
        Ion screening                  false
        Surface tension                    1.0000E-05 Eh       1.5569E+01 dyn/cm
        Grid points                               230 per atom
q/qsh data taken from xtbrestart
CAMM data taken from xtbrestart

          ...................................................
          :                      SETUP                      :
          :.................................................:
          :  # basis functions                 252          :
          :  # atomic orbitals                 250          :
          :  # shells                          146          :
          :  # electrons                       262          :
          :  max. iterations                   250          :
          :  Hamiltonian                  GFN2-xTB          :
          :  restarted?                       true          :
          :  GBSA solvation                   true          :
          :  PC potential                    false          :
          :  electronic temp.          300.0000000     K    :
          :  accuracy                    1.0000000          :
          :  -> integral cutoff          0.2500000E+02      :
          :  -> integral neglect         0.1000000E-07      :
          :  -> SCF convergence          0.1000000E-05 Eh   :
          :  -> wf. convergence          0.1000000E-03 e    :
          :  Broyden damping             0.4000000          :
          ...................................................

 iter      E             dE          RMSdq      gap      omega  full diag
   1   -146.4863010 -0.146486E+03  0.593E-05    0.92       0.0  T
   2   -146.4863010 -0.352429E-10  0.526E-05    0.92     194.2  T
   3   -146.4863010 -0.290754E-10  0.437E-05    0.92     233.8  T

   *** convergence criteria satisfied after 3 iterations ***

         #    Occupation            Energy/Eh            Energy/eV
      -------------------------------------------------------------
         1        2.0000           -1.0334896             -28.1227
       ...           ...                  ...                  ...
       125        2.0000           -0.3814482             -10.3797
       126        2.0000           -0.3553862              -9.6705
       127        2.0000           -0.3389700              -9.2238
       128        2.0000           -0.3302581              -8.9868
       129        2.0000           -0.3260007              -8.8709
       130        2.0000           -0.3182504              -8.6600
       131        2.0000           -0.3151788              -8.5765 (HOMO)
       132                         -0.2812431              -7.6530 (LUMO)
       133                         -0.2531081              -6.8874
       134                         -0.2506104              -6.8195
       135                         -0.2306611              -6.2766
       136                         -0.2252190              -6.1285
       ...                                ...                  ...
       250                          3.7986400             103.3663
      -------------------------------------------------------------
                  HL-Gap            0.0339357 Eh            0.9234 eV
             Fermi-level           -0.2981925 Eh           -8.1142 eV

 SCC (total)                   0 d,  0 h,  0 min,  0.125 sec
 SCC setup                      ...        0 min,  0.003 sec (  2.384%)
 Dispersion                     ...        0 min,  0.002 sec (  1.783%)
 classical contributions        ...        0 min,  0.000 sec (  0.115%)
 integral evaluation            ...        0 min,  0.011 sec (  8.826%)
 iterations                     ...        0 min,  0.067 sec ( 53.202%)
 molecular gradient             ...        0 min,  0.041 sec ( 33.055%)
 printout                       ...        0 min,  0.001 sec (  0.580%)

         :::::::::::::::::::::::::::::::::::::::::::::::::::::
         ::                     SUMMARY                     ::
         :::::::::::::::::::::::::::::::::::::::::::::::::::::
         :: total energy            -144.716229198560 Eh    ::
         :: total w/o Gsasa/hb      -144.678497889591 Eh    ::
         :: gradient norm              0.032003573783 Eh/a0 ::
         :: HOMO-LUMO gap              0.923437954976 eV    ::
         ::.................................................::
         :: SCC energy              -146.486301044434 Eh    ::
         :: -> isotropic ES            0.252592270585 Eh    ::
         :: -> anisotropic ES          0.002617026835 Eh    ::
         :: -> anisotropic XC          0.034419898505 Eh    ::
         :: -> dispersion             -0.138446302565 Eh    ::
         :: -> Gsolv                  -0.049172233365 Eh    ::
         ::    -> Gelec               -0.011440924396 Eh    ::
         ::    -> Gsasa               -0.040284264187 Eh    ::
         ::    -> Ghb                 -0.002771860226 Eh    ::
         ::    -> Gshift               0.005324815444 Eh    ::
         :: repulsion energy           1.761555587680 Eh    ::
         :: add. restraining           0.000000000000 Eh    ::
         :: total charge               0.000000001382 e     ::
         :::::::::::::::::::::::::::::::::::::::::::::::::::::

           -------------------------------------------------
          |                Property Printout                |
           -------------------------------------------------

    * Orbital Energies and Occupations

         #    Occupation            Energy/Eh            Energy/eV
      -------------------------------------------------------------
         1        2.0000           -1.0334896             -28.1227
       ...           ...                  ...                  ...
       119        2.0000           -0.4013590             -10.9215
       120        2.0000           -0.3991544             -10.8615
       121        2.0000           -0.3931855             -10.6991
       122        2.0000           -0.3896827             -10.6038
       123        2.0000           -0.3859113             -10.5012
       124        2.0000           -0.3850715             -10.4783
       125        2.0000           -0.3814482             -10.3797
       126        2.0000           -0.3553862              -9.6705
       127        2.0000           -0.3389700              -9.2238
       128        2.0000           -0.3302581              -8.9868
       129        2.0000           -0.3260007              -8.8709
       130        2.0000           -0.3182504              -8.6600
       131        2.0000           -0.3151788              -8.5765 (HOMO)
       132                         -0.2812431              -7.6530 (LUMO)
       133                         -0.2531081              -6.8874
       134                         -0.2506104              -6.8195
       135                         -0.2306611              -6.2766
       136                         -0.2252190              -6.1285
       137                         -0.2093325              -5.6962
       138                         -0.1944684              -5.2918
       139                         -0.1592682              -4.3339
       140                         -0.1314323              -3.5765
       141                         -0.1275905              -3.4719
       142                         -0.1183749              -3.2211
       ...                                ...                  ...
       250                          3.7986400             103.3663
      -------------------------------------------------------------
                  HL-Gap            0.0339357 Eh            0.9234 eV
             Fermi-level           -0.2981925 Eh           -8.1142 eV

     #   Z          covCN         q      C6AA      α(0)
     1   7 N        2.545    -0.125    23.740     7.236
     2   6 C        2.955     0.077    26.278     8.408
     3   6 C        2.918    -0.043    29.058     8.840
     4   6 C        2.924    -0.021    28.525     8.759
     5   6 C        2.915    -0.042    29.053     8.839
     6   6 C        2.893     0.049    26.896     8.503
     7   1 H        0.926     0.054     2.265     2.354
     8   1 H        0.926     0.059     2.210     2.325
     9   1 H        0.926     0.049     2.330     2.387
    10   6 C        2.953     0.073    26.369     8.422
    11   7 N        2.548    -0.132    23.902     7.261
    12   6 C        2.890     0.042    27.059     8.528
    13   6 C        2.915    -0.043    29.077     8.842
    14   6 C        2.923    -0.023    28.590     8.769
    15   6 C        2.918    -0.045    29.118     8.849
    16   1 H        0.926     0.049     2.337     2.391
    17   1 H        0.926     0.054     2.269     2.356
    18   1 H        0.926     0.078     2.002     2.213
    19  77 Ir       5.931    -0.144   386.804    36.370
    20   1 H        0.977     0.096     1.821     2.109
    21   5 B        2.636     0.406    15.960     6.744
    22   8 O        1.638    -0.405    20.958     6.179
    23   6 C        3.837     0.130    18.452     6.111
    24   6 C        3.755    -0.122    22.902     6.824
    25   1 H        0.925     0.054     2.265     2.353
    26   1 H        0.925     0.046     2.370     2.408
    27   1 H        0.925     0.053     2.286     2.364
    28   6 C        3.754    -0.110    22.663     6.788
    29   1 H        0.925     0.049     2.331     2.388
    30   1 H        0.925     0.043     2.407     2.426
    31   1 H        0.925     0.027     2.630     2.536
    32   6 C        3.844     0.131    18.427     6.106
    33   8 O        1.637    -0.406    20.977     6.182
    34   6 C        3.755    -0.122    22.900     6.823
    35   1 H        0.925     0.053     2.285     2.364
    36   1 H        0.925     0.047     2.358     2.401
    37   1 H        0.925     0.050     2.318     2.381
    38   6 C        3.754    -0.120    22.861     6.818
    39   1 H        0.925     0.046     2.368     2.406
    40   1 H        0.925     0.054     2.274     2.358
    41   1 H        0.925     0.047     2.361     2.403
    42   5 B        2.615     0.410    16.025     6.778
    43   8 O        1.637    -0.383    20.532     6.116
    44   6 C        3.831     0.130    18.455     6.112
    45   6 C        3.755    -0.125    22.953     6.831
    46   1 H        0.925     0.056     2.243     2.342
    47   1 H        0.925     0.053     2.279     2.361
    48   1 H        0.925     0.051     2.308     2.376
    49   6 C        3.755    -0.121    22.871     6.819
    50   1 H        0.925     0.049     2.329     2.386
    51   1 H        0.925     0.048     2.347     2.396
    52   1 H        0.925     0.051     2.311     2.377
    53   6 C        3.826     0.128    18.489     6.118
    54   8 O        1.637    -0.386    20.589     6.125
    55   6 C        3.755    -0.124    22.933     6.828
    56   1 H        0.925     0.050     2.314     2.379
    57   1 H        0.925     0.054     2.271     2.357
    58   1 H        0.925     0.049     2.327     2.385
    59   6 C        3.755    -0.127    23.002     6.838
    60   1 H        0.925     0.053     2.282     2.362
    61   1 H        0.925     0.052     2.291     2.367
    62   1 H        0.925     0.052     2.291     2.367
    63   5 B        2.628     0.407    15.990     6.758
    64   8 O        1.637    -0.380    20.478     6.108
    65   6 C        3.833     0.127    18.499     6.119
    66   6 C        3.755    -0.126    22.973     6.834
    67   1 H        0.925     0.055     2.261     2.352
    68   1 H        0.925     0.053     2.281     2.362
    69   1 H        0.925     0.050     2.317     2.381
    70   6 C        3.755    -0.129    23.036     6.844
    71   1 H        0.925     0.061     2.184     2.311
    72   1 H        0.925     0.051     2.305     2.374
    73   1 H        0.925     0.053     2.284     2.363
    74   6 C        3.830     0.127    18.495     6.119
    75   8 O        1.637    -0.380    20.475     6.108
    76   6 C        3.755    -0.125    22.949     6.831
    77   1 H        0.925     0.052     2.299     2.371
    78   1 H        0.925     0.054     2.271     2.357
    79   1 H        0.925     0.056     2.244     2.343
    80   6 C        3.755    -0.123    22.914     6.826
    81   1 H        0.925     0.041     2.437     2.441
    82   1 H        0.925     0.051     2.308     2.376
    83   1 H        0.925     0.056     2.250     2.346
    84   1 H        0.926     0.056     2.246     2.344
    85   1 H        0.926     0.052     2.289     2.366
    86   6 C        2.866    -0.040    28.992     8.826
    87   6 C        2.931    -0.050    29.240     8.868
    88   6 C        2.893     0.083    26.139     8.382
    89   6 C        2.784     0.155    24.632     8.129
    90   1 H        0.926     0.056     2.245     2.343
    91   6 C        2.969    -0.047    29.174     8.860
    92  17 Cl       0.978    -0.162   104.238    15.620
    93   9 F        0.786    -0.262    11.900     4.075
    94   6 C        2.917    -0.062    29.539     8.912
    95   1 H        0.926     0.084     1.937     2.177
    96   1 H        0.926     0.075     2.032     2.229

 Mol. C6AA /au·bohr⁶  :     103445.123863
 Mol. C8AA /au·bohr⁸  :    2820468.610937
 Mol. α(0) /au        :        498.199995


Wiberg/Mayer (AO) data.
largest (>0.10) Wiberg bond orders for each atom

 ---------------------------------------------------------------------------
     #   Z sym  total        # sym  WBO       # sym  WBO       # sym  WBO
 ---------------------------------------------------------------------------
     1   7 N    3.395 --     6 C    1.392     2 C    1.317    19 Ir   0.426
     2   6 C    3.979 --     3 C    1.351     1 N    1.317    10 C    1.089
     3   6 C    3.988 --     4 C    1.481     2 C    1.351     9 H    0.961
                             6 C    0.106
     4   6 C    3.985 --     3 C    1.481     5 C    1.387    84 H    0.968
     5   6 C    3.979 --     6 C    1.457     4 C    1.387     8 H    0.968
     6   6 C    3.978 --     5 C    1.457     1 N    1.392     7 H    0.957
                             3 C    0.106
     7   1 H    0.997 --     6 C    0.957
     8   1 H    0.996 --     5 C    0.968
     9   1 H    0.997 --     3 C    0.961
    10   6 C    3.979 --    15 C    1.356    11 N    1.309     2 C    1.089
    11   7 N    3.395 --    12 C    1.387    10 C    1.309    19 Ir   0.412
    12   6 C    3.973 --    13 C    1.456    11 N    1.387    18 H    0.947
                            15 C    0.105
    13   6 C    3.981 --    12 C    1.456    14 C    1.389    17 H    0.969
    14   6 C    3.983 --    15 C    1.475    13 C    1.389    85 H    0.969
    15   6 C    3.989 --    14 C    1.475    10 C    1.356    16 H    0.961
                            12 C    0.105
    16   1 H    0.997 --    15 C    0.961
    17   1 H    0.996 --    13 C    0.969
    18   1 H    0.994 --    12 C    0.947
    19  77 Ir   5.130 --    63 B    0.859    42 B    0.848    21 B    0.731
                            86 C    0.586    20 H    0.543     1 N    0.426
                            11 N    0.412
    20   1 H    0.989 --    19 Ir   0.543    86 C    0.344
    21   5 B    3.280 --    33 O    1.109    22 O    1.101    19 Ir   0.731
    22   8 O    2.197 --    21 B    1.101    23 C    0.940
    23   6 C    3.942 --    24 C    0.997    28 C    0.990    32 C    0.941
                            22 O    0.940
    24   6 C    3.993 --    23 C    0.997    26 H    0.983    27 H    0.983
                            25 H    0.983
    25   1 H    0.997 --    24 C    0.983
    26   1 H    0.997 --    24 C    0.983
    27   1 H    0.997 --    24 C    0.983
    28   6 C    3.996 --    23 C    0.990    31 H    0.985    30 H    0.984
                            29 H    0.984
    29   1 H    0.997 --    28 C    0.984
    30   1 H    0.998 --    28 C    0.984
    31   1 H    0.999 --    28 C    0.985
    32   6 C    3.939 --    38 C    0.997    34 C    0.991    23 C    0.941
                            33 O    0.937
    33   8 O    2.198 --    21 B    1.109    32 C    0.937
    34   6 C    3.993 --    32 C    0.991    36 H    0.983    37 H    0.981
                            35 H    0.981
    35   1 H    0.997 --    34 C    0.981
    36   1 H    0.997 --    34 C    0.983
    37   1 H    0.997 --    34 C    0.981
    38   6 C    3.994 --    32 C    0.997    41 H    0.984    39 H    0.983
                            40 H    0.983
    39   1 H    0.998 --    38 C    0.983
    40   1 H    0.997 --    38 C    0.983
    41   1 H    0.997 --    38 C    0.984
    42   5 B    3.340 --    43 O    1.129    54 O    1.105    19 Ir   0.848
    43   8 O    2.231 --    42 B    1.129    44 C    0.935
    44   6 C    3.935 --    45 C    0.996    49 C    0.992    53 C    0.937
                            43 O    0.935
    45   6 C    3.992 --    44 C    0.996    48 H    0.983    47 H    0.982
                            46 H    0.981
    46   1 H    0.997 --    45 C    0.981
    47   1 H    0.997 --    45 C    0.982
    48   1 H    0.996 --    45 C    0.983
    49   6 C    3.994 --    44 C    0.992    50 H    0.983    51 H    0.983
                            52 H    0.980
    50   1 H    0.997 --    49 C    0.983
    51   1 H    0.997 --    49 C    0.983
    52   1 H    0.997 --    49 C    0.980
    53   6 C    3.935 --    55 C    0.995    59 C    0.993    44 C    0.937
                            54 O    0.932
    54   8 O    2.227 --    42 B    1.105    53 C    0.932
    55   6 C    3.994 --    53 C    0.995    58 H    0.983    57 H    0.983
                            56 H    0.983
    56   1 H    0.997 --    55 C    0.983
    57   1 H    0.997 --    55 C    0.983
    58   1 H    0.996 --    55 C    0.983
    59   6 C    3.993 --    53 C    0.993    61 H    0.983    62 H    0.983
                            60 H    0.979
    60   1 H    0.997 --    59 C    0.979
    61   1 H    0.996 --    59 C    0.983
    62   1 H    0.997 --    59 C    0.983
    63   5 B    3.365 --    75 O    1.120    64 O    1.112    19 Ir   0.859
    64   8 O    2.227 --    63 B    1.112    65 C    0.936
    65   6 C    3.936 --    70 C    0.997    66 C    0.991    74 C    0.938
                            64 O    0.936
    66   6 C    3.993 --    65 C    0.991    69 H    0.983    68 H    0.982
                            67 H    0.979
    67   1 H    0.997 --    66 C    0.979
    68   1 H    0.997 --    66 C    0.982
    69   1 H    0.996 --    66 C    0.983
    70   6 C    3.992 --    65 C    0.997    72 H    0.983    73 H    0.982
                            71 H    0.982
    71   1 H    0.996 --    70 C    0.982
    72   1 H    0.996 --    70 C    0.983
    73   1 H    0.997 --    70 C    0.982
    74   6 C    3.934 --    76 C    0.996    80 C    0.991    65 C    0.938
                            75 O    0.934
    75   8 O    2.235 --    63 B    1.120    74 C    0.934
    76   6 C    3.992 --    74 C    0.996    77 H    0.983    78 H    0.982
                            79 H    0.982
    77   1 H    0.996 --    76 C    0.983
    78   1 H    0.997 --    76 C    0.982
    79   1 H    0.997 --    76 C    0.982
    80   6 C    3.995 --    74 C    0.991    81 H    0.984    83 H    0.983
                            82 H    0.983
    81   1 H    0.998 --    80 C    0.984
    82   1 H    0.997 --    80 C    0.983
    83   1 H    0.996 --    80 C    0.983
    84   1 H    0.996 --     4 C    0.968
    85   1 H    0.996 --    14 C    0.969
    86   6 C    3.933 --    87 C    1.372    88 C    1.354    19 Ir   0.586
                            20 H    0.344
    87   6 C    3.987 --    89 C    1.407    86 C    1.372    90 H    0.958
                            91 C    0.102
    88   6 C    3.913 --    91 C    1.411    86 C    1.354    92 Cl   0.964
    89   6 C    3.869 --    87 C    1.407    94 C    1.391    93 F    0.925
    90   1 H    0.997 --    87 C    0.958
    91   6 C    3.981 --    94 C    1.429    88 C    1.411    95 H    0.962
                            87 C    0.102
    92  17 Cl   1.136 --    88 C    0.964
    93   9 F    1.041 --    89 C    0.925
    94   6 C    3.981 --    91 C    1.429    89 C    1.391    96 H    0.964
    95   1 H    0.991 --    91 C    0.962
    96   1 H    0.993 --    94 C    0.964
 ---------------------------------------------------------------------------

Topologies differ in total number of bonds
Writing topology from bond orders to xtbtopo.mol

molecular dipole:
                 x           y           z       tot (Debye)
 q only:        0.460       0.701      -1.428
   full:       -0.900       1.033      -2.289       6.781
molecular quadrupole (traceless):
                xx          xy          yy          xz          yz          zz
 q only:        5.512      -3.511       1.812      11.754      17.499      -7.323
  q+dip:        8.021      -1.682       3.653       9.050      24.124     -11.674
   full:        6.810      -0.509       5.822       6.389      21.305     -12.632


           -------------------------------------------------
          | TOTAL ENERGY             -144.716229198560 Eh   |
          | GRADIENT NORM               0.032003573783 Eh/α |
          | HOMO-LUMO GAP               0.923437954976 eV   |
           -------------------------------------------------

------------------------------------------------------------------------
 * finished run on 2022/01/14 at 15:28:13.159     
------------------------------------------------------------------------
 total:
 * wall-time:     0 d,  0 h,  0 min,  0.155 sec
 *  cpu-time:     0 d,  0 h,  0 min,  0.808 sec
 * ratio c/w:     5.194 speedup
 SCF:
 * wall-time:     0 d,  0 h,  0 min,  0.126 sec
 *  cpu-time:     0 d,  0 h,  0 min,  0.650 sec
 * ratio c/w:     5.140 speedup

