101
 energy: -145.423876919350 gnorm: 0.077065373385 xtb: 6.4.1 (1a32961)
N        -0.96510000000000   -2.11530000000002   -0.24090000000000
C        -2.24700000000000   -1.69840000000000   -0.36220000000000
C        -3.14040000000000   -2.36820000000001   -1.21200000000001
C        -2.70220000000002   -3.47560000000001   -1.93050000000002
C        -1.37780000000001   -3.89879999999993   -1.78760000000007
C        -0.54289999999999   -3.18669999999993   -0.93510000000001
H         0.49810000000000   -3.45630000000001   -0.78940000000000
H        -0.99570000000000   -4.76030000000002   -2.32769999999999
H        -4.16500000000000   -2.02890000000000   -1.31830000000000
C        -2.62130000000001   -0.50950000000000    0.44100000000000
N        -1.62600000000000    0.07330000000001    1.16020000000002
C        -1.89680000000001    1.15240000000003    1.91689999999998
C        -3.17230000000000    1.70330000000006    1.99649999999997
C        -4.20510000000000    1.11739999999998    1.26269999999997
C        -3.92610000000000    0.00249999999998    0.47820000000002
H        -4.71960000000000   -0.46420000000000   -0.09520000000000
H        -3.34630000000001    2.57510000000002    2.62070000000001
H        -1.04450000000000    1.57420000000000    2.43690000000001
Ir        0.42150000000000   -0.81650000000000    0.91330000000000
H         0.87260000000000   -2.23030000000000    1.54050000000000
B         0.50670000000000    0.41560000000002   -0.81539999999998
O         0.19500000000000   -0.04700000000003   -2.09150000000001
C         0.00649999999999    1.10040000000009   -2.95429999999997
C         0.49019999999998    0.74740000000000   -4.35780000000001
H         1.51609999999999    0.37379999999999   -4.33700000000000
H         0.44730000000000    1.62240000000004   -5.01670000000000
H        -0.14740000000001   -0.03390000000000   -4.78430000000000
C        -1.50119999999999    1.39560000000006   -2.96669999999998
H        -1.75370000000000    2.21460000000001   -3.64850000000000
H        -2.03200000000001    0.49450000000001   -3.28930000000001
H        -1.85169999999999    1.65209999999999   -1.96219999999999
C         0.84230000000000    2.20669999999998   -2.22040000000000
O         0.75200000000000    1.78259999999999   -0.83689999999997
C         2.32930000000002    2.18620000000002   -2.59899999999996
H         2.74130000000000    1.18500000000002   -2.45749999999999
H         2.48870000000000    2.51300000000000   -3.63179999999997
H         2.87200000000001    2.86270000000001   -1.93199999999999
C         0.28440000000001    3.62290000000002   -2.33660000000007
H        -0.72650000000000    3.69040000000000   -1.92910000000002
H         0.92130000000001    4.31480000000000   -1.77610000000000
H         0.26430000000000    3.94809999999999   -3.38320000000005
B         1.56300000000000    0.60960000000001    1.84840000000001
O         2.92780000000000    0.55229999999999    2.15020000000001
C         3.36330000000001    1.88659999999999    2.50260000000003
C         4.53139999999999    1.78589999999997    3.47739999999999
H         4.27910000000000    1.16090000000003    4.33689999999998
H         5.39390000000000    1.33789999999999    2.97340000000000
H         4.82390000000000    2.77869999999998    3.83820000000000
C         3.79700000000000    2.56850000000000    1.19670000000001
H         4.20020000000000    3.57090000000000    1.37679999999999
H         4.56740000000001    1.95560000000000    0.72110000000001
H         2.95240000000000    2.63260000000000    0.50540000000000
C         2.05039999999999    2.50090000000001    3.09319999999997
O         1.03750000000001    1.81620000000004    2.31909999999998
C         1.89100000000004    4.00450000000004    2.88649999999997
H         1.87290000000000    4.25440000000000    1.82409999999998
H         0.94939999999999    4.34259999999999    3.33169999999999
H         2.71080000000000    4.55149999999998    3.36630000000000
C         1.82470000000001    2.13199999999998    4.56520000000000
H         1.92610000000001    1.05329999999999    4.71320000000001
H         2.52610000000001    2.65279999999999    5.22539999999999
H         0.80630000000001    2.41579999999999    4.84900000000000
B         2.27820000000000   -1.33090000000000    0.17410000000000
O         2.89459999999999   -2.57739999999999    0.38449999999999
C         4.26930000000002   -2.48200000000000   -0.07210000000002
C         5.10900000000000   -2.05380000000002    1.14009999999998
H         4.76350000000000   -1.08739999999997    1.51750000000000
H         4.98050000000000   -2.79470000000001    1.93590000000000
H         6.17420000000000   -1.99290000000000    0.89300000000000
C         4.71950000000001   -3.84659999999999   -0.58469999999999
H         4.75279999999999   -4.56130000000001    0.24419999999999
H         5.72329999999999   -3.78370000000000   -1.02010000000002
H         4.03500000000001   -4.23600000000001   -1.34169999999998
C         4.16439999999997   -1.36220000000005   -1.16299999999998
O         3.08520000000001   -0.55029999999999   -0.65400000000002
C         5.40719999999999   -0.48870000000001   -1.31549999999999
H         6.27320000000000   -1.09010000000000   -1.61530000000000
H         5.23300000000000    0.26929999999999   -2.08589999999999
H         5.64269999999999    0.02650000000000   -0.38240000000000
C         3.71799999999997   -1.89829999999997   -2.53109999999999
H         2.82530000000000   -2.52159999999999   -2.42740000000000
H         3.46090000000000   -1.05249999999998   -3.17549999999997
H         4.50570000000001   -2.48290000000001   -3.01790000000004
H        -3.38500000000000   -4.00129999999996   -2.59310000000001
H        -5.21400000000000    1.52080000000000    1.29960000000000
C         0.23589999999999   -1.68140000000001    2.96030000000000
C        -0.96553986075899   -2.14358885620537    3.53488297308841
C         1.21657326571395   -1.90113442366367    3.92827704875597
C        -0.69937426294508   -2.56017185409098    4.83261920625568
H        -1.93628845324884   -2.18826247675618    3.06989822504611
N         0.64450660385397   -2.39499931009572    5.06348949310718
C         2.69599247116295   -1.77774165309240    3.88267448551777
C        -1.54827829030789   -3.15962616448523    5.76900522692958
C         1.35312993849619   -2.70833628740429    6.28012773636712
H         2.99594773083206   -1.43849807078056    2.89595096301972
H         3.16184071785877   -2.74292362982309    4.08948869859300
H         3.05882135358842   -1.06619230735178    4.62667335834603
N        -2.23554397486006   -3.68762512540510    6.53227896450990
H         0.67644330583058   -3.19798948963560    6.97936865196565
H         1.74421344911543   -1.79690260628396    6.73814558271099
H         2.19106210111216   -3.37546936580898    6.06745812105017
101
 energy: -145.431023236194 gnorm: 0.048026425566 xtb: 6.4.1 (1a32961)
N        -0.96120839076087   -2.10094043318804   -0.24887691312595
C        -2.23942481409365   -1.69079930256767   -0.36328003056032
C        -3.13388231193529   -2.36229543180827   -1.20583606794181
C        -2.70362449509699   -3.46374416893598   -1.92139535097696
C        -1.38337614589869   -3.88228461195942   -1.78197364994142
C        -0.55382964739627   -3.16836642240676   -0.93934203568510
H         0.48012968811960   -3.44803938973898   -0.79070676415478
H        -1.00700685900892   -4.74231290020527   -2.31743536705730
H        -4.15463797640084   -2.02714201976017   -1.30971272428112
C        -2.61131862325988   -0.51461073042668    0.43647161263896
N        -1.61877759098830    0.06504042814047    1.14765539461691
C        -1.89727738537079    1.13596128025387    1.89502226116989
C        -3.16397172160067    1.68575943942699    1.98352070714176
C        -4.19565839279687    1.10205395665949    1.25678897221098
C        -3.91446564910908   -0.00456880138250    0.47670910357683
H        -4.70624196207208   -0.46804805221278   -0.09179907519678
H        -3.33888605007755    2.54935256590332    2.60997041978041
H        -1.05388882613712    1.55461542239989    2.42325541041016
Ir        0.42150000000000   -0.81650000000000    0.91330000000000
H         0.87260000000000   -2.23030000000000    1.54050000000000
B         0.49398279237667    0.42096859619094   -0.79176551477209
O         0.17561757210255   -0.03639820969271   -2.06419025522633
C         0.00982351322387    1.09611266160597   -2.94321305939621
C         0.48857805083479    0.74762943105306   -4.34855400468665
H         1.50771868102553    0.37114053945209   -4.32777524406495
H         0.44331606977348    1.62332350284423   -4.99675851558486
H        -0.15007582457233   -0.02836088178841   -4.76925903764524
C        -1.49442382835180    1.39857869671064   -2.96899131681756
H        -1.73350642954403    2.21175858125013   -3.65276178644986
H        -2.02482102906231    0.50162109015899   -3.28905219898094
H        -1.84141448681260    1.65316316620160   -1.96730190353831
C         0.83123603934044    2.20598810960938   -2.21178000745059
O         0.75582823595948    1.77785952532071   -0.83521817024769
C         2.31377526138065    2.19089941752484   -2.59975713636038
H         2.71875295282615    1.19192898889972   -2.45058226022547
H         2.46500684152161    2.51275911335773   -3.62946509441691
H         2.85595860012121    2.86584699037392   -1.93840302417504
C         0.27948628036863    3.62218586738568   -2.33844098763949
H        -0.72391974421408    3.69127153986277   -1.92628143738207
H         0.91893084151470    4.30623050987402   -1.78187832345260
H         0.26152512424620    3.93511948413030   -3.38259794307287
B         1.55905248144819    0.62640263795554    1.85078371185485
O         2.92365990016800    0.58347811261313    2.11621781189857
C         3.36221304320521    1.89867382768250    2.50390184139495
C         4.53179908772015    1.79296373903957    3.47508874608736
H         4.27930219279287    1.16433854898027    4.32461807662017
H         5.38630545148554    1.34735289346179    2.96790250445951
H         4.81701818597270    2.78118411382473    3.83425280448339
C         3.80019506178260    2.58460080120272    1.20684751982039
H         4.20265344200677    3.57942139166062    1.39075515248479
H         4.56312452291333    1.97001511230970    0.73165740355218
H         2.95189372526032    2.63553152435936    0.52570846949264
C         2.05124753242353    2.51045341920623    3.08816943683357
O         1.03654152525427    1.81657559317310    2.33616054451148
C         1.89258989891636    4.01213758374792    2.89042011207363
H         1.86688445766603    4.25535000905650    1.83207828944367
H         0.95498201422835    4.34027907296109    3.33722995747815
H         2.71370143832550    4.54757138734738    3.36642232187846
C         1.83148996518513    2.14339811169027    4.56000149700137
H         1.93266467180140    1.06755250382593    4.69261404326160
H         2.53318546796120    2.66289333969747    5.21033465989843
H         0.81703791191136    2.42059857854266    4.84580012452636
B         2.27820000000000   -1.33090000000000    0.17410000000000
O         2.90455003947306   -2.56026110168622    0.39271137036898
C         4.26787179457503   -2.48270563842047   -0.07986103138944
C         5.11768473384405   -2.05777994836518    1.12218043464580
H         4.76863164378596   -1.09444884502635    1.49076330765952
H         4.98696510431520   -2.79193009978925    1.91607046616075
H         6.17440889118922   -2.00094506634277    0.86761221819813
C         4.72111298003683   -3.84529860108358   -0.58929939308220
H         4.75119045446619   -4.54941375443002    0.24087884190415
H         5.71838474130747   -3.77440728045123   -1.02259921235844
H         4.03454802729876   -4.23273567207246   -1.33713944632230
C         4.16651959215483   -1.35941340471995   -1.15905532225437
O         3.07491890544439   -0.56325715319350   -0.66099504414461
C         5.40956922075988   -0.49083110545730   -1.31665502245011
H         6.26575227607783   -1.09625643710581   -1.61303027751477
H         5.23077556347088    0.26033125979120   -2.08475882087138
H         5.63753523460192    0.02385082279199   -0.38773051898702
C         3.72871682349704   -1.89869392757389   -2.52678560945001
H         2.83673736320218   -2.51428379827381   -2.41800585428069
H         3.47087370654086   -1.05722891095762   -3.16852524805082
H         4.51844686176642   -2.47563775601249   -3.00523580358848
H        -3.38307457688792   -3.98880269011510   -2.57917435712176
H        -5.19972362435828    1.50337303040712    1.29742566639389
C         0.23589999999998   -1.68140000000001    2.96030000000000
C        -0.96942440667333   -2.13319156097800    3.53196225301507
C         1.21370312973629   -1.90568936121406    3.93447542052022
C        -0.70769668862128   -2.55186669153103    4.83287853301022
H        -1.93797395767605   -2.17101658563710    3.06710722527997
N         0.63708705217214   -2.39405783848594    5.06447617511133
C         2.69222762935526   -1.78740312188461    3.88646860997235
C        -1.55760590688933   -3.14250450649367    5.76284147472734
C         1.33981048052771   -2.71076250509609    6.28018062698302
H         2.99048754759703   -1.45003096857761    2.90251215400101
H         3.15379454095042   -2.75363106413568    4.09143089121819
H         3.05765635981932   -1.07758133216114    4.62862038911585
N        -2.24822254968891   -3.66544623769606    6.52499852905880
H         0.65994495779525   -3.19650863597681    6.97754664391268
H         1.73485189240395   -1.80154457587846    6.73891084842358
H         2.17409038927139   -3.38213806205077    6.06865663021957
101
 energy: -145.433296974456 gnorm: 0.038522646177 xtb: 6.4.1 (1a32961)
N        -0.95205940543674   -2.09417857644508   -0.25494243791785
C        -2.22841011872253   -1.68564645856511   -0.36489435510171
C        -3.12787235382071   -2.35597389689346   -1.20232680999961
C        -2.70605143202090   -3.45442588771877   -1.91870229541430
C        -1.38587766997691   -3.87274741022075   -1.78308345898031
C        -0.55704827975016   -3.15928924755415   -0.94509715095891
H         0.47536559915313   -3.44349049218266   -0.80405231902479
H        -1.01520215829485   -4.73211771833346   -2.31697260007812
H        -4.14729312893560   -2.02177897584203   -1.29827515855613
C        -2.59724068016010   -0.51895987610505    0.43068353579948
N        -1.60738836931083    0.05649546604856    1.14219821252394
C        -1.89275320013083    1.12091154962438    1.88557031092475
C        -3.15503290320101    1.67098442386311    1.97757868662015
C        -4.18730509116474    1.08766721006271    1.25155922316170
C        -3.90160835282794   -0.01218040931973    0.47157828587821
H        -4.69104721485320   -0.47782234219444   -0.09389533133918
H        -3.33087861180579    2.53001205804192    2.60436051936936
H        -1.05491424472846    1.54466876780244    2.41523200074404
Ir        0.42150000000000   -0.81650000000000    0.91330000000000
H         0.87260000000000   -2.23030000000000    1.54050000000000
B         0.49407362558934    0.42931587806427   -0.77024127458822
O         0.15476853648549   -0.02744085223817   -2.03592681743231
C         0.00370974405943    1.09301239889003   -2.92358326108878
C         0.48698663932389    0.74107856885228   -4.32691556141640
H         1.50253198448140    0.36137850256238   -4.30780672491987
H         0.44114600540983    1.62040926378073   -4.96442590178252
H        -0.15543433918240   -0.02867450776759   -4.74656823852851
C        -1.49888084474291    1.40458709149146   -2.96801531189787
H        -1.71989609309841    2.21435374350278   -3.65676439393465
H        -2.02879242923097    0.51019760766630   -3.28919319268857
H        -1.84808744699515    1.66200486242015   -1.97011608123792
C         0.82181492827571    2.20484399412604   -2.19827449580108
O         0.75861037065412    1.78011506104747   -0.82722368274063
C         2.30168534875315    2.19611171261461   -2.59741397450241
H         2.70459424284728    1.19902967981561   -2.44189843857031
H         2.43899618387528    2.51124281232739   -3.62787759714007
H         2.84346846716807    2.87573859352543   -1.94430521059809
C         0.26723633035937    3.61957865870654   -2.33315707896671
H        -0.73193972651594    3.69443970954947   -1.91736641888158
H         0.91190544259499    4.30212648575248   -1.78602787986576
H         0.24966311615952    3.91610914495334   -3.37854586455634
B         1.55779600538533    0.64202770394068    1.85116811130475
O         2.91960464763930    0.60624638470560    2.09003319791375
C         3.35876939487951    1.90902760859243    2.49808291073780
C         4.52595196607710    1.79797695947458    3.47268039862874
H         4.27543756977788    1.16474984166940    4.31613694367005
H         5.37683557002850    1.35816049310585    2.96049662786368
H         4.80387574865917    2.78463264019882    3.83128587105090
C         3.80424967985340    2.61350546561580    1.21356335294055
H         4.20449171065449    3.60386450540406    1.40538273231858
H         4.56563319747908    2.00071389693619    0.73857705300114
H         2.95565684339130    2.65945706494369    0.53577313966333
C         2.05075638501550    2.51829171901178    3.08572421888037
O         1.03617174416936    1.81708436013555    2.35024074720468
C         1.89189851530327    4.02026348276032    2.89016623631552
H         1.85776970296298    4.26390687344354    1.83445598997458
H         0.95965704588653    4.34373493320190    3.34452690054497
H         2.71681692691013    4.54603344090831    3.36194513038162
C         1.84365546740711    2.15562622624314    4.56141442325109
H         1.94599780694065    1.08094464413608    4.68331876671590
H         2.54840291795099    2.67640003278672    5.20160665122468
H         0.83166827323247    2.42963104202162    4.84997458309407
B         2.27820000000000   -1.33090000000001    0.17410000000000
O         2.91200504734509   -2.54562740919027    0.40449696144904
C         4.26408897455694   -2.47894955693769   -0.08318411150096
C         5.13263643464909   -2.05824931967090    1.10683042816746
H         4.78666975073545   -1.09435005776797    1.47044964204643
H         5.00409976353998   -2.78829117546856    1.90083838244580
H         6.18237155754352   -2.00824937000635    0.83682930700859
C         4.71373181371776   -3.84184883034944   -0.59616297388778
H         4.74729242913633   -4.53894537234331    0.23581606465197
H         5.70613711515384   -3.76283238712390   -1.03016619717488
H         4.02555989866675   -4.23103838351088   -1.33794518474940
C         4.16156637988319   -1.35791522248233   -1.16005659160710
O         3.06151796277092   -0.57312104619727   -0.67135958650042
C         5.40516930866453   -0.48970632723323   -1.31482894290499
H         6.25385142839357   -1.10187811428765   -1.60577394410212
H         5.22699065381737    0.25437267096616   -2.08584269321252
H         5.62987301243871    0.02781299400660   -0.38956211607915
C         3.73789202537328   -1.90083188950453   -2.53119151852766
H         2.84737503273815   -2.51406667215984   -2.42075485139224
H         3.48276001660667   -1.06146565693929   -3.17322094408157
H         4.53392855283621   -2.47287902729969   -2.99709618442941
H        -3.38708810094720   -3.97974648817953   -2.57000257197548
H        -5.19010082668198    1.48433788770062    1.29622283703750
C         0.23589999999998   -1.68140000000001    2.96030000000001
C        -0.97533343100878   -2.11693499889439    3.52748014704838
C         1.20882428538559   -1.91143448363996    3.94062304823151
C        -0.72259456367414   -2.53548926568426    4.83286432373112
H        -1.94269882065502   -2.14350466958584    3.06177331616650
N         0.62414728738536   -2.39176974902562    5.06533693460622
C         2.68714406810457   -1.79647711177007    3.88882073426087
C        -1.57944890392658   -3.11228924564763    5.75809779810672
C         1.31746581892710   -2.71508138616440    6.28240792101396
H         2.98267416365190   -1.45644120689881    2.90591576738742
H         3.14464363830656   -2.76519864916785    4.08939383236249
H         3.05593904935407   -1.09190360440635    4.63338719871317
N        -2.28214206989688   -3.62649187426473    6.51665458135676
H         0.63034229255634   -3.19368892243899    6.97717631584577
H         1.71999399782228   -1.81001546664423    6.74302042021126
H         2.14560194950483   -3.39500417845580    6.07427682469486
101
 energy: -145.434445033662 gnorm: 0.038298781038 xtb: 6.4.1 (1a32961)
N        -0.94024659006990   -2.09233855709560   -0.26433879689000
C        -2.21751036115468   -1.68408549368274   -0.36865574599621
C        -3.12237962285954   -2.35405148924596   -1.20178995647108
C        -2.70700866039064   -3.45226829519671   -1.92005917781064
C        -1.38473529055221   -3.87043018070449   -1.79109946934751
C        -0.55196509731479   -3.15630738796673   -0.95791058585308
H         0.48038007925917   -3.44486214441467   -0.82309305448001
H        -1.01853142529219   -4.73025100316617   -2.32576537073419
H        -4.14156126417760   -2.01796065378109   -1.29067004719647
C        -2.58470930149182   -0.52235472339155    0.42693442136650
N        -1.59556525866075    0.05325526306981    1.13957011674055
C        -1.88526767366160    1.11572073173730    1.88232417580967
C        -3.14798356693056    1.66278923969134    1.97709023282781
C        -4.18091209662807    1.07731748791825    1.25082360594461
C        -3.89111241138487   -0.01861653583744    0.46899501387825
H        -4.67793897311775   -0.48605741427418   -0.09803733075079
H        -3.32579727471142    2.51862140208931    2.60608601421404
H        -1.05143517309658    1.54186742384697    2.41673543309048
Ir        0.42150000000000   -0.81650000000000    0.91330000000000
H         0.87260000000000   -2.23030000000000    1.54050000000000
B         0.48147670807921    0.44208996839428   -0.75071678031120
O         0.13069625487848   -0.01920702493392   -2.01135815501850
C        -0.00734920464732    1.09257588421027   -2.90507742027861
C         0.48280970998884    0.73202640573698   -4.30474420037140
H         1.49584701106829    0.34687183203614   -4.28049646415486
H         0.44327368306993    1.61219149255009   -4.94049179945660
H        -0.16277308389741   -0.03430797800093   -4.72490753234840
C        -1.50872852248827    1.41289628938592   -2.96619122152435
H        -1.71426864656722    2.22078774108396   -3.66094876810630
H        -2.03948532157498    0.52021419404211   -3.28955317747589
H        -1.86594752302481    1.67620691792411   -1.97298660592267
C         0.81119289450526    2.20694425521502   -2.18406338075135
O         0.75848724312159    1.78794581556874   -0.81506361710153
C         2.28919150847212    2.20170744439313   -2.59402306929989
H         2.69515800974467    1.20701584523255   -2.43253236871917
H         2.41542185929839    2.50907112540744   -3.62760655733269
H         2.83183718798040    2.88903846397781   -1.95024068264921
C         0.25411723011879    3.62107841799896   -2.32550943509519
H        -0.74237182015955    3.69938422351307   -1.90472813258014
H         0.90284384777056    4.30757117189348   -1.78868689219938
H         0.23126853926563    3.90489858617855   -3.37381889453853
B         1.55667623570687    0.65236656573800    1.85209283154090
O         2.91959333545269    0.62542926359934    2.06603813689964
C         3.35628682267937    1.92095606011825    2.49101743481419
C         4.52306224673587    1.80239677145824    3.46706704208530
H         4.27307741938277    1.16198232104328    4.30478086120722
H         5.37463101793436    1.36907681829106    2.95112359443282
H         4.79595285883623    2.78762110133337    3.83207348687860
C         3.80697134137262    2.64375451596495    1.21686468289345
H         4.20250664697214    3.63221414746471    1.42387145484884
H         4.57309978759823    2.03917936469064    0.73919758280238
H         2.96102353440795    2.69450316483114    0.53667250635288
C         2.04870153383472    2.52546411813909    3.08537598593062
O         1.03251858586666    1.81686938326640    2.36366018908827
C         1.88672661937837    4.02826331662801    2.89010799006790
H         1.84291005429335    4.27334227221986    1.83524447588520
H         0.95946373906548    4.35122800590184    3.35431403897499
H         2.71709264930601    4.55066464587728    3.35494945477204
C         1.85587504471504    2.16780503472106    4.56553524470379
H         1.96146284083199    1.09372386053693    4.68570659459507
H         2.56581606111587    2.69203883322843    5.19590189504321
H         0.84594236353104    2.44071968574535    4.86099879977239
B         2.27820000000000   -1.33090000000002    0.17409999999999
O         2.91937668160071   -2.53544642490377    0.41826889928983
C         4.26210098563466   -2.47516796401395   -0.08587484632230
C         5.14935620718816   -2.05694754178106    1.09281702309549
H         4.81202602138699   -1.09070153962300    1.45748776145831
H         5.02672171557295   -2.78465484088225    1.88917333937979
H         6.19463146489282   -2.01399088105709    0.80631637512744
C         4.70471364160206   -3.84056817945116   -0.60185306218288
H         4.74404204611184   -4.53535037954635    0.23132032929457
H         5.69341295293009   -3.75937607305702   -1.04249223787727
H         4.01122544984770   -4.23028152638698   -1.33800547788824
C         4.15575836603089   -1.35630384480922   -1.16446862110918
O         3.04822903716321   -0.57922598759531   -0.68523213149116
C         5.39819039505461   -0.48440202405770   -1.31572633797996
H         6.24650437624702   -1.09998638484003   -1.59878703300797
H         5.22297998996889    0.25449287837243   -2.09184579141617
H         5.61795549701668    0.03773933206604   -0.39227585543228
C         3.74597318158252   -1.90396306398771   -2.53898054423587
H         2.85666086911133   -2.51897154221883   -2.43346902591522
H         3.49518978776943   -1.06629110862958   -3.18446231221767
H         4.54928671098817   -2.47362775149309   -2.99368497564452
H        -3.39167625591114   -3.97709453567884   -2.56718768402981
H        -5.18470428168684    1.46974118644532    1.29788046316992
C         0.23589999999997   -1.68140000000000    2.96030000000002
C        -0.98272219681325   -2.09752645119710    3.52275995433041
C         1.20246166053101   -1.91775837110657    3.94596406815889
C        -0.74118655037857   -2.51485346996427    4.83198642698852
H        -1.94944192193715   -2.11112278100595    3.05500829160136
N         0.60745681090541   -2.38804267589172    5.06740091738953
C         2.68119498122615   -1.80751461741914    3.89267347991712
C        -1.61113566650126   -3.07451298864379    5.75383117827374
C         1.29007047781196   -2.71947504920897    6.28779939291329
H         2.97497205231113   -1.46251127142017    2.91052718201543
H         3.13571419050391   -2.77906660303482    4.08697934798864
H         3.05326301418522   -1.10900976119112    4.64131708995828
N        -2.32641092185057   -3.57496836072870    6.51028518540409
H         0.59301872626274   -3.18895898889544    6.97924165359342
H         1.70208495857465   -1.81969251975418    6.75073332230631
H         2.11031140208573   -3.41060077987791    6.08410267949383
101
 energy: -145.435729869031 gnorm: 0.038771114353 xtb: 6.4.1 (1a32961)
N        -0.92515103086521   -2.09453588512386   -0.27560576722304
C        -2.20410153421678   -1.68546555390927   -0.37403875505741
C        -3.11396154600740   -2.35477863807123   -1.20406724111536
C        -2.70459192510481   -3.45273685194273   -1.92556467005504
C        -1.37973472309711   -3.87040320149853   -1.80515416297879
C        -0.54162424962123   -3.15667066182156   -0.97580522326792
H         0.49239700139438   -3.44657426084147   -0.85160324914472
H        -1.01753568446068   -4.72990556672794   -2.34345183890636
H        -4.13339288883442   -2.01630205957759   -1.28489722202354
C        -2.57011258448079   -0.52703781219375    0.42351729399614
N        -1.58169675615617    0.04787862481734    1.14094382417685
C        -1.87556206504824    1.10950322508156    1.88541766845070
C        -3.13972427795877    1.65328667344123    1.98072076824241
C        -4.17249994686149    1.06656538742455    1.25200939108806
C        -3.87815271352305   -0.02475153615885    0.46610441873409
H        -4.66210949484516   -0.49384448904365   -0.10410881160485
H        -3.31986199398910    2.50669103635344    2.61237123468618
H        -1.04480416796100    1.53990254922256    2.42224661892333
Ir        0.42150000000000   -0.81650000000000    0.91330000000000
H         0.87260000000000   -2.23030000000000    1.54050000000000
B         0.47748706281188    0.45797660474142   -0.72918469953381
O         0.09808189853773   -0.00636044964778   -1.98097570808854
C        -0.02663105592240    1.09586137272725   -2.88122046302564
C         0.47331573496170    0.71863561226145   -4.27429986117765
H         1.48240913805069    0.32282775235325   -4.23685009011785
H         0.44866518437244    1.59541104469417   -4.91610211638675
H        -0.17645528539931   -0.04465878083663   -4.69442861673866
C        -1.52608813400516    1.42751148060726   -2.96298341054252
H        -1.71419193575724    2.23286589118147   -3.66596238042042
H        -2.05910123918144    0.53681465402012   -3.28888366411846
H        -1.89654608556257    1.70046385776160   -1.97676212242320
C         0.79664382804204    2.21399971815091   -2.16726235762423
O         0.75800564311842    1.80087284339939   -0.79938641749989
C         2.27246342487038    2.21266107232761   -2.58967586014353
H         2.68546593692801    1.22202141939276   -2.41878726255781
H         2.38656123325180    2.50758429936451   -3.62844580972168
H         2.81626340212713    2.91230610565401   -1.95947067954658
C         0.23376090010910    3.62654299890797   -2.31385987110114