95
 energy: -144.970009565899 gnorm: 0.078184083248 xtb: 6.4.1 (1a32961)
N        -0.96510000000000   -2.11530000000000   -0.24090000000000
C        -2.24700000000000   -1.69840000000000   -0.36220000000000
C        -3.14040000000000   -2.36820000000000   -1.21200000000000
C        -2.70220000000000   -3.47560000000000   -1.93050000000000
C        -1.37780000000000   -3.89880000000000   -1.78760000000000
C        -0.54290000000000   -3.18670000000000   -0.93510000000000
H         0.49810000000000   -3.45630000000000   -0.78940000000000
H        -0.99570000000000   -4.76030000000000   -2.32770000000000
H        -4.16500000000000   -2.02890000000000   -1.31830000000000
C        -2.62130000000000   -0.50950000000000    0.44100000000000
N        -1.62600000000000    0.07330000000000    1.16020000000000
C        -1.89680000000000    1.15240000000000    1.91690000000000
C        -3.17230000000000    1.70330000000000    1.99650000000000
C        -4.20510000000000    1.11740000000000    1.26270000000000
C        -3.92610000000000    0.00250000000000    0.47820000000000
H        -4.71960000000000   -0.46420000000000   -0.09520000000000
H        -3.34630000000000    2.57510000000000    2.62070000000000
H        -1.04450000000000    1.57420000000000    2.43690000000000
Ir        0.42150000000000   -0.81650000000000    0.91330000000000
H         0.87260000000000   -2.23030000000000    1.54050000000000
B         0.50670000000000    0.41560000000000   -0.81540000000000
O         0.19500000000000   -0.04700000000000   -2.09150000000000
C         0.00650000000000    1.10040000000000   -2.95430000000000
C         0.49020000000000    0.74740000000000   -4.35780000000000
H         1.51610000000000    0.37380000000000   -4.33700000000000
H         0.44730000000000    1.62240000000000   -5.01670000000000
H        -0.14740000000000   -0.03390000000000   -4.78430000000000
C        -1.50120000000000    1.39560000000000   -2.96670000000000
H        -1.75370000000000    2.21460000000000   -3.64850000000000
H        -2.03200000000000    0.49450000000000   -3.28930000000000
H        -1.85170000000000    1.65210000000000   -1.96220000000000
C         0.84230000000000    2.20670000000000   -2.22040000000000
O         0.75200000000000    1.78260000000000   -0.83690000000000
C         2.32930000000000    2.18620000000000   -2.59900000000000
H         2.74130000000000    1.18500000000000   -2.45750000000000
H         2.48870000000000    2.51300000000000   -3.63180000000000
H         2.87200000000000    2.86270000000000   -1.93200000000000
C         0.28440000000000    3.62290000000000   -2.33660000000000
H        -0.72650000000000    3.69040000000000   -1.92910000000000
H         0.92130000000000    4.31480000000000   -1.77610000000000
H         0.26430000000000    3.94810000000000   -3.38320000000000
B         1.56300000000000    0.60960000000000    1.84840000000000
O         2.92780000000000    0.55230000000000    2.15020000000000
C         3.36330000000000    1.88660000000000    2.50260000000000
C         4.53140000000000    1.78590000000000    3.47740000000000
H         4.27910000000000    1.16090000000000    4.33690000000000
H         5.39390000000000    1.33790000000000    2.97340000000000
H         4.82390000000000    2.77870000000000    3.83820000000000
C         3.79700000000000    2.56850000000000    1.19670000000000
H         4.20020000000000    3.57090000000000    1.37680000000000
H         4.56740000000000    1.95560000000000    0.72110000000000
H         2.95240000000000    2.63260000000000    0.50540000000000
C         2.05040000000000    2.50090000000000    3.09320000000000
O         1.03750000000000    1.81620000000000    2.31910000000000
C         1.89100000000000    4.00450000000000    2.88650000000000
H         1.87290000000000    4.25440000000000    1.82410000000000
H         0.94940000000000    4.34260000000000    3.33170000000000
H         2.71080000000000    4.55150000000000    3.36630000000000
C         1.82470000000000    2.13200000000000    4.56520000000000
H         1.92610000000000    1.05330000000000    4.71320000000000
H         2.52610000000000    2.65280000000000    5.22540000000000
H         0.80630000000000    2.41580000000000    4.84900000000000
B         2.27820000000000   -1.33090000000000    0.17410000000000
O         2.89460000000000   -2.57740000000000    0.38450000000000
C         4.26930000000000   -2.48200000000000   -0.07210000000000
C         5.10900000000000   -2.05380000000000    1.14010000000000
H         4.76350000000000   -1.08740000000000    1.51750000000000
H         4.98050000000000   -2.79470000000000    1.93590000000000
H         6.17420000000000   -1.99290000000000    0.89300000000000
C         4.71950000000000   -3.84660000000000   -0.58470000000000
H         4.75280000000000   -4.56130000000000    0.24420000000000
H         5.72330000000000   -3.78370000000000   -1.02010000000000
H         4.03500000000000   -4.23600000000000   -1.34170000000000
C         4.16440000000000   -1.36220000000000   -1.16300000000000
O         3.08520000000000   -0.55030000000000   -0.65400000000000
C         5.40720000000000   -0.48870000000000   -1.31550000000000
H         6.27320000000000   -1.09010000000000   -1.61530000000000
H         5.23300000000000    0.26930000000000   -2.08590000000000
H         5.64270000000000    0.02650000000000   -0.38240000000000
C         3.71800000000000   -1.89830000000000   -2.53110000000000
H         2.82530000000000   -2.52160000000000   -2.42740000000000
H         3.46090000000000   -1.05250000000000   -3.17550000000000
H         4.50570000000000   -2.48290000000000   -3.01790000000000
H        -3.38500000000000   -4.00130000000000   -2.59310000000000
H        -5.21400000000000    1.52080000000000    1.29960000000000
C         0.23590000000000   -1.68140000000000    2.96030000000000
C        -0.99943994247905   -2.10159001980811    3.45655447877064
C         1.31517335319575   -1.83643937305673    3.83751805618787
C        -1.09013017546387   -2.60862360533506    4.74368285576619
H        -1.90535445842503   -2.06207729440481    2.86664945126531
N         1.24094766823120   -2.34423923089501    5.06377940307797
H         2.31638037234142   -1.56800323211429    3.52242164987495
F        -2.28928950237075   -3.00964899940083    5.21858618061114
C         0.05570600820334   -2.74271360370831    5.51304909799839
Cl        0.01924029229725   -3.47754002159996    7.06982314767976
95
 energy: -144.976641623582 gnorm: 0.047776363514 xtb: 6.4.1 (1a32961)
N        -0.96286634212322   -2.10273842188444   -0.25107815091449
C        -2.23930772029191   -1.69088134977364   -0.36508451113261
C        -3.13425363744845   -2.36176019974193   -1.20669656192059
C        -2.70399754821676   -3.46386595665464   -1.92249300021059
C        -1.38488222583929   -3.88291200203689   -1.78385346960017
C        -0.55432838687503   -3.16920114352362   -0.94104791095128
H         0.47947636408690   -3.44856941034571   -0.79176071654339
H        -1.00864342763387   -4.74278854484391   -2.31903073988990
H        -4.15457759859857   -2.02627115150850   -1.31044667262407
C        -2.61110608095762   -0.51200276763525    0.43503596298631
N        -1.61970511160990    0.07047936472506    1.14428122934729
C        -1.89744254883834    1.13976699056925    1.89328857073980
C        -3.16559447892771    1.68715822775807    1.98366085366974
C        -4.19599468688550    1.10275103495420    1.25725296166472
C        -3.91440139822376   -0.00410714298085    0.47650857672936
H        -4.70571952529353   -0.46806260128670   -0.09163546085742
H        -3.34053507100299    2.55001674168375    2.61052641044345
H        -1.05366568395338    1.55839786302103    2.42113070201889
Ir        0.42150000000000   -0.81650000000000    0.91330000000000
H         0.87260000000000   -2.23030000000000    1.54050000000000
B         0.49411474853456    0.41962785449863   -0.79375925559192
O         0.17488835867677   -0.03725957362423   -2.06478228380119
C         0.00992600317288    1.09640555749822   -2.94383596582416
C         0.48922266772063    0.74779794845344   -4.34869552072462
H         1.50815946608386    0.37131338750459   -4.32729681208432
H         0.44425889228512    1.62360939554345   -4.99638771875519
H        -0.14949316418057   -0.02783684949490   -4.76943710408130
C        -1.49408176529534    1.39894812152607   -2.96919635626717
H        -1.73216752191933    2.21213027459333   -3.65295102185427
H        -2.02403621061668    0.50220381916053   -3.28982765900582
H        -1.84033354109754    1.65372319124962   -1.96747505701163
C         0.83180886218613    2.20560154917552   -2.21123435100620
O         0.75586081767938    1.77516252377997   -0.83441569758806
C         2.31417176818559    2.19055289601235   -2.59890092602807
H         2.71907615006493    1.19169767306548   -2.44978862585988
H         2.46495661981513    2.51295277431471   -3.62831521717927
H         2.85598899472351    2.86542040265844   -1.93745955066993
C         0.27991506106002    3.62175981310723   -2.33712657838892
H        -0.72340624283951    3.69100081579380   -1.92521509915856
H         0.91951768243862    4.30546751955375   -1.78068861797727
H         0.26239850452186    3.93470758811788   -3.38110911679360
B         1.56645457393978    0.61792730250307    1.85509580649147
O         2.92477658554612    0.56353277562246    2.13646828438293
C         3.36341924229140    1.88544286563150    2.50994635765047
C         4.53278306828075    1.78762747555711    3.48077736824490
H         4.28100954484373    1.15893427289627    4.33079888133604
H         5.38789059325697    1.34410618726994    2.97271310964525
H         4.81505047348681    2.77801239993266    3.83673054981652
C         3.79843526752226    2.57304926960234    1.21136584935918
H         4.19981403595934    3.56840707826558    1.39624062394087
H         4.56268120318179    1.96193404072762    0.73451175302679
H         2.95032947281118    2.62599852447827    0.53003297501135
C         2.05308561670546    2.50363997947751    3.09008549155274
O         1.04008543312821    1.80695047394485    2.33668700460698
C         1.89326580123829    4.00563438121019    2.88942436075968
H         1.86794504823754    4.24942168450050    1.83121804624130
H         0.95614735156833    4.33479379921258    3.33657068417454
H         2.71366758918052    4.54158691357531    3.36574621516029
C         1.83203717161917    2.13875742491934    4.56217073499720
H         1.93594681164815    1.06320262557139    4.70224440130857
H         2.53267198051804    2.66079289848061    5.21094987361710
H         0.81766176069772    2.41737906567884    4.84733684822123
B         2.27820000000000   -1.33090000000000    0.17410000000000
O         2.89969579813617   -2.56067371125096    0.39261589661711
C         4.26477433802510   -2.48304334539410   -0.07736680695513
C         5.10971425808541   -2.05828301566380    1.12800326008434
H         4.75450633494264   -1.09801603794242    1.49943401501631
H         4.97930272349840   -2.79365198705348    1.92106677026597
H         6.16711098875395   -1.99860445763681    0.87524762140981
C         4.71933259957483   -3.84485668875549   -0.58808588946279
H         4.74983243526485   -4.54942617792546    0.24163610646268
H         5.71698976987945   -3.77273362942148   -1.02022713240592
H         4.03401232358082   -4.23237034197932   -1.33706157400053
C         4.16547112652702   -1.36009288997352   -1.15793056165318
O         3.07186696794758   -0.56400058832927   -0.66220707453122
C         5.40831296460106   -0.49120933201884   -1.31534655922954
H         6.26446808604251   -1.09675423721816   -1.61119273945937
H         5.22993283244714    0.25971219009145   -2.08370379055342
H         5.63635577171897    0.02307749200477   -0.38635631055604
C         3.72864778492625   -1.89870526140418   -2.52620116724539
H         2.83693102637286   -2.51453909996807   -2.41813053798794
H         3.47171990410378   -1.05695021304139   -3.16769836410691
H         4.51915995883881   -2.47516566817041   -3.00358698962152
H        -3.38354930256001   -3.98845242145773   -2.58003509960322
H        -5.19995020086479    1.50343105833976    1.29784547209372
C         0.23590000000000   -1.68139999999999    2.96029999999999
C        -1.00149044784949   -2.10288891176950    3.45296087235166
C         1.31128820012273   -1.82714137578756    3.84896798125203
C        -1.09412147415657   -2.60340827173853    4.74140376398841
H        -1.90401842071330   -2.06941201541871    2.86012693858610
N         1.22980467360794   -2.32694804511659    5.07190987024468
H         2.31139100063814   -1.55420185973539    3.53998382182342
F        -2.29568350665576   -3.00925335607129    5.21513682459601
C         0.05021890029677   -2.72770867525907    5.51517405849179
Cl        0.00971514790666   -3.45685279661541    7.07712012935007
95
 energy: -144.978509097079 gnorm: 0.037757225708 xtb: 6.4.1 (1a32961)
N        -0.95716383142655   -2.09750873289449   -0.25914177165529
C        -2.23006681867430   -1.68535155656145   -0.36893695669795
C        -3.13035802553076   -2.35375079611604   -1.20532639877710
C        -2.70843084124810   -3.45396992682355   -1.92177232665506
C        -1.39038501802162   -3.87380587281669   -1.78729974712556
C        -0.55965851514588   -3.16108467862704   -0.94828554628380
H         0.47262502142594   -3.44443150741974   -0.80631596185081
H        -1.01979155107601   -4.73290310678422   -2.32111722232594
H        -4.14912472700126   -2.01905771580111   -1.30152632594314
C        -2.59856944722469   -0.51388211167029    0.42818152261179
N        -1.61058506850552    0.06614529985623    1.13635915937612
C        -1.89373026560100    1.12896287781511    1.88141740689545
C        -3.15886170311840    1.67500561505270    1.97692958957053
C        -4.18909703991821    1.08986107934444    1.25224282748221
C        -3.90299016334384   -0.01068512946407    0.47090852492640
H        -4.69217325351434   -0.47741708121927   -0.09318983955588
H        -3.33479643783827    2.53258174080332    2.60510600660452
H        -1.05448301727315    1.55382882010690    2.40831081053156
Ir        0.42150000000000   -0.81650000000000    0.91330000000000
H         0.87260000000000   -2.23030000000000    1.54050000000000
B         0.49469571360103    0.42576617869703   -0.77442531415276
O         0.15387030034296   -0.02980898723587   -2.03760974485468
C         0.00405988258361    1.09335794581801   -2.92497847212826
C         0.48863463486474    0.74146896938733   -4.32738741842234
H         1.50386988648065    0.36158680340942   -4.30682922707832
H         0.44374930450770    1.62099722689049   -4.96433495530068
H        -0.15377196556000   -0.02773610889560   -4.74747877888692
C        -1.49806220424618    1.40554280487036   -2.96875927818406
H        -1.71766945864612    2.21565709175090   -3.65724387702111
H        -2.02760974025350    0.51167866023525   -3.29093671483606
H        -1.84619240740288    1.66303900878149   -1.97077558961669
C         0.82318652261118    2.20351343983142   -2.19710137120140
O         0.75937365241932    1.77407742578518   -0.82545998146976
C         2.30287805459608    2.19506020069676   -2.59513162052917
H         2.70583703435831    1.19812435643961   -2.44008450803860
H         2.43975893432952    2.51137250835991   -3.62508610650147
H         2.84399837673376    2.87447029846616   -1.94153409506451
C         0.26846641203516    3.61828418923117   -2.32936048187151
H        -0.73061395653943    3.69313873182366   -1.91384068606629
H         0.91342383248603    4.30018819244970   -1.78211206986957
H         0.25133689606868    3.91549567603441   -3.37440934671584
B         1.57028893677446    0.62283754805316    1.86416128991599
O         2.92315020120129    0.57200610201424    2.12465649585751
C         3.36232618648304    1.88482045061752    2.51348026058311
C         4.53006833789259    1.78549118998962    3.48657108780312
H         4.28197846726944    1.15137724281257    4.33065281474845
H         5.38303949794306    1.35011935002950    2.97372729839964
H         4.80193348711512    2.77524440800120    3.84161556258619
C         3.80154088766371    2.58345946992256    1.22258448586158
H         4.19935965883392    3.57469642322812    1.41628383008241
H         4.56500957063150    1.97547339951696    0.74535889654658
H         2.95182027878133    2.63110144879032    0.54606320148598
C         2.05382075193441    2.50100363585795    3.09335625624283
O         1.04218051934701    1.79669369607939    2.35288530739382
C         1.89480250691432    4.00264637488456    2.89031144373085
H         1.86131324807660    4.24475737804733    1.83418498971476
H         0.96278486232117    4.32776348698232    3.34409071570133
H         2.71871624804144    4.53011508976297    3.36183051451912
C         1.84333035134625    2.14500232193057    4.56979978693181
H         1.95134711326525    1.07126756194806    4.70583852884843
H         2.54604684702176    2.67186749838996    5.20690213806099
H         0.83086751569916    2.41987852047664    4.85640289613759
B         2.27820000000000   -1.33090000000000    0.17409999999999
O         2.90115204323382   -2.54729617184109    0.40279913323393
C         4.25741171946180   -2.48045933812008   -0.07778070045280
C         5.11391559667079   -2.05977800053520    1.12021594579632
H         4.75436334938373   -1.10248224783292    1.48923671435314
H         4.98503255238250   -2.79387175124759    1.91106724221983
H         6.16535683311980   -2.00131385466650    0.85754099505290
C         4.71008681317971   -3.84183377973341   -0.59204539593578
H         4.74373273562560   -4.54034419973900    0.23877414798912
H         5.70346299800714   -3.75993352476880   -1.02346295839526
H         4.02458132287653   -4.23063145979618   -1.33657076946241
C         4.15985499024390   -1.35950469861220   -1.15657612589655
O         3.05772161369039   -0.57338862004537   -0.67054676697979
C         5.40340286382239   -0.49132955688780   -1.30935152522024
H         6.25192971617966   -1.10380713391356   -1.59993054525609
H         5.22599522861541    0.25283923986832   -2.08046229230985
H         5.62811669565162    0.02490987624788   -0.38344865245934
C         3.73817310197295   -1.90115030539685   -2.52890825546985
H         2.84773692574012   -2.51459636117438   -2.42076114222357
H         3.48502962802844   -1.06086113233719   -3.17022023653745
H         4.53537247521877   -2.47252020860035   -2.99344515224629
H        -3.39006181797507   -3.97855234190665   -2.57249390549379
H        -5.19219185532625    1.48461015869641    1.29777489817108
C         0.23590000000000   -1.68139999999999    2.96029999999998
C        -1.00368467494088   -2.10704359629419    3.44668959775779
C         1.30469691379538   -1.80878416342168    3.86374866006353
C        -1.10331721940539   -2.59498806687884    4.73887565476774
H        -1.90093258806695   -2.08521226238824    2.84626922726437
N         1.21235023669658   -2.29570177462459    5.08769097310977
H         2.30412484969542   -1.52849914313847    3.56186282513407
F        -2.30807264880479   -3.00673501245270    5.20752765438143
C         0.03606798874674   -2.70131454284506    5.52334504031591
Cl       -0.01365992264347   -3.41763548455697    7.09458986754771
95
 energy: -144.979306068536 gnorm: 0.037173993461 xtb: 6.4.1 (1a32961)
N        -0.94988783694690   -2.09572873916016   -0.26958546131558
C        -2.22294577465551   -1.68296013218321   -0.37403602578245
C        -3.12851280227482   -2.34991382994753   -1.20668203580917
C        -2.71257845368386   -3.45054198604100   -1.92480882196478
C        -1.39311532739625   -3.87102674366799   -1.79679210526411
C        -0.55802840102461   -3.15803624272943   -0.96190322296097
H         0.47394712117491   -3.44587782017353   -0.82497821720808
H        -1.02691793209382   -4.73077330013949   -2.33143367787986
H        -4.14681138103480   -2.01299546115649   -1.29745466837425
C        -2.58948843598217   -0.51517247842515    0.42382953944580
N        -1.60199734870999    0.06598186873197    1.13159650165536
C        -1.88798169174896    1.12788346875641    1.87528340036577
C        -3.15440316190953    1.66988609502725    1.97518570985465
C        -4.18540340826729    1.08135540735399    1.25216631400614
C        -3.89578771510159   -0.01573382605931    0.46852782362352
H        -4.68310264440202   -0.48436584980126   -0.09608440769701
H        -3.33197809969605    2.52453057222874    2.60563922551311
H        -1.05154015696389    1.55613370210311    2.40429677833142
Ir        0.42150000000000   -0.81650000000000    0.91330000000000
H         0.87260000000000   -2.23030000000000    1.54050000000000
B         0.48206654475254    0.43593662463163   -0.75698843526094
O         0.13105288963623   -0.02318460978030   -2.01539243213609
C        -0.00586749893433    1.09306941243399   -2.90805422160911
C         0.48576572114254    0.73314044547966   -4.30672722937527
H         1.49853227481646    0.34770109628945   -4.28049309887391
H         0.44773593552862    1.61335436033859   -4.94238767596440
H        -0.15953924590879   -0.03272915225557   -4.72783974464148
C        -1.50669157185303    1.41386054127305   -2.96757826540635
H        -1.71149941739890    2.22265809870461   -3.66142057195195
H        -2.03739551885705    0.52195634854699   -3.29233985877702
H        -1.86262861254295    1.67668960059697   -1.97402385615756
C         0.81400335760162    2.20462240995242   -2.18292430265051
O         0.75988491821424    1.77901616742009   -0.81302987435569
C         2.29196897698816    2.19946207866778   -2.59049352010272
H         2.69787245710421    1.20469849245960   -2.43029049546698
H         2.41901314784561    2.50908313254555   -3.62321783220109
H         2.83366756157599    2.88573899327753   -1.94497252553321
C         0.25705850960497    3.61894832531292   -2.31941387216998
H        -0.73945512490669    3.69653682704459   -1.89888798575716
H         0.90589313236748    4.30408614025944   -1.78121289007550
H         0.23457308769158    3.90553739219959   -3.36693848847045
B         1.57279306794650    0.62522348574031    1.86791335707175
O         2.92452067394031    0.57701299075934    2.11332664643458
C         3.36269574788896    1.88441281982408    2.51589435022248
C         4.52960331155412    1.78092656551521    3.49094638319632
H         4.28341678279182    1.13961027406077    4.32989438143382
H         5.38495051285756    1.35392104955457    2.97539697463938
H         4.79413942490881    2.76996186790286    3.85241262631385
C         3.80535891045244    2.59500010888839    1.23179276953406
H         4.19915307944160    3.58517468700749    1.43560894838586
H         4.57213341938282    1.99238454197899    0.75340501002816
H         2.95697467413152    2.64394490293534    0.55420584947412
C         2.05460476576903    2.49790712450232    3.09941576175343
O         1.04146578830963    1.78774276213623    2.36961799564236
C         1.89287331181991    3.99965334032132    2.89320545314719
H         1.85039601037060    4.23961878191715    1.83702177265317
H         0.96519868943951    4.32537994412862    3.35492408164058
H         2.72194156000278    4.52533056127775    3.35675615704624
C         1.85496284495697    2.14957068584656    4.58014422453124
H         1.96749053084736    1.07707573285002    4.71992400790196
H         2.56088596168457    2.68305071470453    5.20740635317360
H         0.84367882855979    2.42274178025738    4.87121677496518
B         2.27820000000000   -1.33090000000000    0.17409999999999
O         2.90291019877948   -2.53985992099772    0.41340638400020
C         4.25279187224505   -2.47884056533889   -0.07745627866301
C         5.11991940405337   -2.06011857340905    1.11450869882740
H         4.76194253330792   -1.10329453208289    1.48562208338639
H         4.99546449675272   -2.79493996411414    1.90495884218269
H         6.16839397282499   -2.00244344433635    0.84257934070493
C         4.70066873300407   -3.84191381006636   -0.59386859279188
H         4.73847145314663   -4.53903962750226    0.23753929501646
H         5.69137980743045   -3.75700936195491   -1.02964376297361
H         4.01167858192515   -4.23079404365495   -1.33479972696127
C         4.15518671139090   -1.35925801767404   -1.15754997448206
O         3.04677316956383   -0.57853689447278   -0.68066962112426
C         5.39813901024882   -0.48843316508742   -1.30484522978716
H         6.24647221660954   -1.10400470093712   -1.58810539139251
H         5.22426775459182    0.25199056249159   -2.07996102312868
H         5.61741334681920    0.03081119569467   -0.37963086663809
C         3.74682012544170   -1.90401901017133   -2.53361948461389
H         2.85709723984556   -2.51888960817604   -2.43157398590901
H         3.49876732417095   -1.06472041064752   -3.17788483155596
H         4.55084430867377   -2.47336625251775   -2.98754535898815
H        -3.39804045314297   -3.97422178314041   -2.57172792898808
H        -5.18985544213169    1.47120887516670    1.30091227811057
C         0.23590000000001   -1.68139999999997    2.96029999999997
C        -1.00544590931579   -2.11254819230761    3.43868721076056
C         1.29641647486123   -1.78689372339374    3.87793200455659
C        -1.11528517305634   -2.58472565863073    4.73584179772723
H        -1.89610529117853   -2.10656217852496    2.82753279184517
N         1.19274122156542   -2.25769395888331    5.10698247994712
H         2.29576332647221   -1.49863118138829    3.58367339921693
F        -2.32270572057822   -3.00189327053966    5.19657110788966
C         0.01658806657754   -2.66898071845171    5.53459500313615
Cl       -0.04529575765034   -3.36610209246188    7.11696130242914
95
 energy: -144.980308974000 gnorm: 0.037567024384 xtb: 6.4.1 (1a32961)
N        -0.94087828911221   -2.09768373494530   -0.28199398413606
C        -2.21469567624276   -1.68258447085639   -0.38059455636794
C        -3.12586184142689   -2.34657016404493   -1.21108338096871
C        -2.71683990609019   -3.44755271830769   -1.93244998032911
C        -1.39554812588542   -3.86922012094813   -1.81308622971944
C        -0.55429792807840   -3.15772366934794   -0.98148032848589
H         0.47900454524392   -3.44801090272357   -0.85516650098042
H        -1.03436434232623   -4.72898006848582   -2.35156604067089
H        -4.14392064458021   -2.00624732603576   -1.29523980718966
C        -2.57897255853579   -0.51807043211160    0.42003391161581
N        -1.59173160451589    0.06295159337565    1.13080401364902
C        -1.88022828025824    1.12643586325111    1.87291453173276
C        -3.14848793271235    1.66449513383167    1.97522634715460
C        -4.18033386587874    1.07224232770035    1.25358792579858
C        -3.88686231868697   -0.02073682554721    0.46606554370300
H        -4.67219372063961   -0.49136761668531   -0.10013342159151
H        -3.32771096580304    2.51753432052821    2.60735782565694
H        -1.04567132026924    1.56135906237374    2.40062160532396
Ir        0.42150000000000   -0.81650000000000    0.91330000000000
H         0.87260000000000   -2.23030000000000    1.54050000000000
B         0.47775385962760    0.44940288220760   -0.73484375399466
O         0.09683362453913   -0.01143402155469   -1.98423789335083
C        -0.02461146932409    1.09613073486326   -2.88301125726809
C         0.47807972845909    0.71931568040654   -4.27458065974735
H         1.48641642122550    0.32208211048126   -4.23396677561961
H         0.45657340154902    1.59631229878260   -4.91610249256414
H        -0.17172146519102   -0.04277214562440   -4.69653582533054
C        -1.52315122609560    1.42977305997643   -2.96499624709602
H        -1.70863307522348    2.23662857185829   -3.66692742953344
H        -2.05666724030561    0.54065405394790   -3.29352819136958
H        -1.89348989330013    1.70203338773160   -1.97880839723469
C         0.80022224743812    2.21020382337394   -2.16351585987451
O         0.76119972960745    1.78868832143412   -0.79515526106149
C         2.27594255400772    2.20945298062412   -2.58361638869773
H         2.68883672598318    1.21865205597917   -2.41445543266325
H         2.39080802165071    2.50711755424914   -3.62138981527611
H         2.81856716509476    2.90769108216113   -1.95108981067995
C         0.23749037996032    3.62315831127447   -2.30256262967514
H        -0.75459736207835    3.70230145497660   -1.87092525033828
H         0.89167311114247    4.31526042913342   -1.77888685934654
H         0.20141565785012    3.89869349657137   -3.35309310504753
B         1.57546062210092    0.62609247709613    1.87339009785278
O         2.92895958718500    0.58485539388786    2.09523710767192
C         3.36525598236264    1.88549906785985    2.51854517360229
C         4.53094310771204    1.77154103883042    3.49586163870411
H         4.28692587399121    1.11602043680201    4.32516569601613
H         5.39157605464175    1.35869741057193    2.97640404676231
H         4.78684579989830    2.75754346561489    3.87355839001902
C         3.81325107406434    2.61560975199980    1.24568656553675
H         4.19982319006450    3.60548219903689    1.46614522796803
H         4.58780611277220    2.02376995185126    0.76533269444150
H         2.96922814925938    2.66940981607490    0.56279008291437
C         2.05733556770315    2.49296035679154    3.11224308042809
O         1.04047537436917    1.77437717583459    2.39797721988890
C         1.88840995460009    3.99425364521038    2.89892908348534
H         1.82864636306623    4.22906138933228    1.84175624518872
H         0.96795423253344    4.32225571064261    3.37468255605311
H         2.72543183514052    4.52298717788126    3.34604359095442
C         1.87491359880055    2.15707289985192    4.59931421675665
H         1.99403401489489    1.08660781108241    4.74987854701730
H         2.58576025199525    2.70148706403280    5.21226872671357
H         0.86544140570813    2.42879400915602    4.89860219042665