      -----------------------------------------------------------      
     |                   =====================                   |     
     |                           x T B                           |     
     |                   =====================                   |     
     |                         S. Grimme                         |     
     |          Mulliken Center for Theoretical Chemistry        |     
     |                    University of Bonn                     |     
      -----------------------------------------------------------      

   * xtb version 6.4.1 (1a32961) compiled by 'knkr256@seskscpg007.prim.scp' on 2021-10-19

   xtb is free software: you can redistribute it and/or modify it under
   the terms of the GNU Lesser General Public License as published by
   the Free Software Foundation, either version 3 of the License, or
   (at your option) any later version.
   
   xtb is distributed in the hope that it will be useful,
   but WITHOUT ANY WARRANTY; without even the implied warranty of
   MERCHANTABILITY or FITNESS FOR A PARTICULAR PURPOSE.  See the
   GNU Lesser General Public License for more details.
   
   Cite this work as:
   * C. Bannwarth, E. Caldeweyher, S. Ehlert, A. Hansen, P. Pracht,
     J. Seibert, S. Spicher, S. Grimme, WIREs Comput. Mol. Sci., 2020, 11,
     e01493. DOI: 10.1002/wcms.1493
   
   for GFN2-xTB:
   * C. Bannwarth, S. Ehlert and S. Grimme., J. Chem. Theory Comput., 2019,
     15, 1652-1671. DOI: 10.1021/acs.jctc.8b01176
   for GFN1-xTB:
   * S. Grimme, C. Bannwarth, P. Shushkov, J. Chem. Theory Comput., 2017,
     13, 1989-2009. DOI: 10.1021/acs.jctc.7b00118
   for GFN0-xTB:
   * P. Pracht, E. Caldeweyher, S. Ehlert, S. Grimme, ChemRxiv, 2019, preprint.
     DOI: 10.26434/chemrxiv.8326202.v1
   for GFN-FF:
   * S. Spicher and S. Grimme, Angew. Chem. Int. Ed., 2020, 59, 15665-15673.
     DOI: 10.1002/anie.202004239
   
   for ALPB and GBSA implicit solvation:
   * S. Ehlert, M. Stahn, S. Spicher, S. Grimme, J. Chem. Theory Comput.,
     2021, 17, 4250-4261. DOI: 10.1021/acs.jctc.1c00471
   
   for DFT-D4:
   * E. Caldeweyher, C. Bannwarth and S. Grimme, J. Chem. Phys., 2017,
     147, 034112. DOI: 10.1063/1.4993215
   * E. Caldeweyher, S. Ehlert, A. Hansen, H. Neugebauer, S. Spicher,
     C. Bannwarth and S. Grimme, J. Chem. Phys., 2019, 150, 154122.
     DOI: 10.1063/1.5090222
   * E. Caldeweyher, J.-M. Mewes, S. Ehlert and S. Grimme, Phys. Chem. Chem. Phys.
     2020, 22, 8499-8512. DOI: 10.1039/D0CP00502A
   
   for sTDA-xTB:
   * S. Grimme and C. Bannwarth, J. Chem. Phys., 2016, 145, 054103.
     DOI: 10.1063/1.4959605
   
   in the mass-spec context:
   * V. Asgeirsson, C. Bauer and S. Grimme, Chem. Sci., 2017, 8, 4879.
     DOI: 10.1039/c7sc00601b
   * J. Koopman and S. Grimme, ACS Omega 2019, 4, 12, 15120-15133.
     DOI: 10.1021/acsomega.9b02011
   
   for metadynamics refer to:
   * S. Grimme, J. Chem. Theory Comput., 2019, 155, 2847-2862
     DOI: 10.1021/acs.jctc.9b00143
   
   for SPH calculations refer to:
   * S. Spicher and S. Grimme, J. Chem. Theory Comput., 2021, 17, 1701-1714
     DOI: 10.1021/acs.jctc.0c01306
   
   with help from (in alphabetical order)
   P. Atkinson, C. Bannwarth, F. Bohle, G. Brandenburg, E. Caldeweyher
   M. Checinski, S. Dohm, S. Ehlert, S. Ehrlich, I. Gerasimov, J. Koopman
   C. Lavigne, S. Lehtola, F. März, M. Müller, F. Musil, H. Neugebauer
   J. Pisarek, C. Plett, P. Pracht, J. Seibert, P. Shushkov, S. Spicher
   M. Stahn, M. Steiner, T. Strunk, J. Stückrath, T. Rose, and J. Unsleber
   
 * started run on 2022/01/14 at 13:04:19.424     

           -------------------------------------------------
          |                Calculation Setup                |
           -------------------------------------------------

          program call               : xtb xtbopt.xyz --sp --alpb thf -P 6
          hostname                   : seskscpg007.prim.scp
          coordinate file            : xtbopt.xyz
          omp threads                :                     6
          number of atoms            :                   102
          number of electrons        :                   270
          charge                     :                     0
          spin                       :                   0.0
          first test random number   :      0.82593280133059

   ID    Z sym.   atoms
    1    7 N      1, 11, 90, 93
    2    6 C      2-6, 10, 12-15, 23, 24, 28, 32, 34, 38, 44, 45, 49, 53, 55,
                  59, 65, 66, 70, 74, 76, 80, 86-89, 91, 94, 95, 99
    3    1 H      7-9, 16-18, 20, 25-27, 29-31, 35-37, 39-41, 46-48, 50-52,
                  56-58, 60-62, 67-69, 71-73, 77-79, 81-85, 92, 96-98, 100-102
    4   77 Ir     19
    5    5 B      21, 42, 63
    6    8 O      22, 33, 43, 54, 64, 75

molecular fragmentation (1/2 indicates fragments):
111111111111111111111111111111111111111111111111111111111111111111111111
111111111111122222222222222222
# atoms in fragment 1/2:    85    17
 fragment masses (1/2) :      730.32      131.15
CMA distance (Bohr)    :   9.283
constraining FC (au)   :  0.0500

           -------------------------------------------------
          |                 G F N 2 - x T B                 |
           -------------------------------------------------

        Reference                      10.1021/acs.jctc.8b01176
      * Hamiltonian:
        H0-scaling (s, p, d)           1.850000    2.230000    2.230000
        zeta-weighting                 0.500000
      * Dispersion:
        s8                             2.700000
        a1                             0.520000
        a2                             5.000000
        s9                             5.000000
      * Repulsion:
        kExp                           1.500000    1.000000
        rExp                           1.000000
      * Coulomb:
        alpha                          2.000000
        third order                    shell-resolved
        anisotropic                    true
        a3                             3.000000
        a5                             4.000000
        cn-shift                       1.200000
        cn-exp                         4.000000
        max-rad                        5.000000

      * Solvation model:               ALPB
        Solvent                        thf
        Parameter file                 internal GFN2-xTB/ALPB
        Dielectric constant                7.6000E+00
        Reference state                gsolv [1 M gas/solution]
        Free energy shift                  5.3248E-03 Eh       3.3414E+00 kcal/mol
        Temperature                        2.9815E+02 K
        Density                            8.8300E-01 kg/L
        Solvent mass                       7.2106E+01 g/mol
        Interaction kernel             P16
        Born radius scaling (c1)           1.7311E+00
        Born radii integrator          GBOBC
        Born offset                        0.0000E+00 a0       0.0000E+00 AA
        H-bond correction              true
        Ion screening                  false
        Surface tension                    1.0000E-05 Eh       1.5569E+01 dyn/cm
        Grid points                               230 per atom
q/qsh data taken from xtbrestart
CAMM data taken from xtbrestart

          ...................................................
          :                      SETUP                      :
          :.................................................:
          :  # basis functions                 258          :
          :  # atomic orbitals                 257          :
          :  # shells                          153          :
          :  # electrons                       270          :
          :  max. iterations                   250          :
          :  Hamiltonian                  GFN2-xTB          :
          :  restarted?                       true          :
          :  GBSA solvation                   true          :
          :  PC potential                    false          :
          :  electronic temp.          300.0000000     K    :
          :  accuracy                    1.0000000          :
          :  -> integral cutoff          0.2500000E+02      :
          :  -> integral neglect         0.1000000E-07      :
          :  -> SCF convergence          0.1000000E-05 Eh   :
          :  -> wf. convergence          0.1000000E-03 e    :
          :  Broyden damping             0.4000000          :
          ...................................................

 iter      E             dE          RMSdq      gap      omega  full diag
   1   -149.5597127 -0.149560E+03  0.109E-04    0.82       0.0  T
   2   -149.5597127  0.708417E-08  0.284E-04    0.82      34.8  T
   3   -149.5597127 -0.809672E-08  0.409E-05    0.82     242.2  T

   *** convergence criteria satisfied after 3 iterations ***

         #    Occupation            Energy/Eh            Energy/eV
      -------------------------------------------------------------
         1        2.0000           -0.6757441             -18.3879
       ...           ...                  ...                  ...
       129        2.0000           -0.3680198             -10.0143
       130        2.0000           -0.3486083              -9.4861
       131        2.0000           -0.3306153              -8.9965
       132        2.0000           -0.3223948              -8.7728
       133        2.0000           -0.3167841              -8.6201
       134        2.0000           -0.3108205              -8.4579
       135        2.0000           -0.3090363              -8.4093 (HOMO)
       136        0.0000           -0.2790691              -7.5939 (LUMO)
       137                         -0.2511374              -6.8338
       138                         -0.2481780              -6.7533
       139                         -0.2216128              -6.0304
       140                         -0.2080045              -5.6601
       ...                                ...                  ...
       257                          3.8730338             105.3906
      -------------------------------------------------------------
                  HL-Gap            0.0299673 Eh            0.8155 eV
             Fermi-level           -0.2939850 Eh           -7.9997 eV

 SCC (total)                   0 d,  0 h,  0 min,  0.091 sec
 SCC setup                      ...        0 min,  0.002 sec (  2.760%)
 Dispersion                     ...        0 min,  0.003 sec (  3.688%)
 classical contributions        ...        0 min,  0.000 sec (  0.160%)
 integral evaluation            ...        0 min,  0.011 sec ( 11.746%)
 iterations                     ...        0 min,  0.037 sec ( 40.490%)
 molecular gradient             ...        0 min,  0.036 sec ( 40.228%)
 printout                       ...        0 min,  0.001 sec (  0.843%)

         :::::::::::::::::::::::::::::::::::::::::::::::::::::
         ::                     SUMMARY                     ::
         :::::::::::::::::::::::::::::::::::::::::::::::::::::
         :: total energy            -147.629762819141 Eh    ::
         :: total w/o Gsasa/hb      -147.589156443359 Eh    ::
         :: gradient norm              0.032039769606 Eh/a0 ::
         :: HOMO-LUMO gap              0.815451353885 eV    ::
         ::.................................................::
         :: SCC energy              -149.559712712010 Eh    ::
         :: -> isotropic ES            0.254599166046 Eh    ::
         :: -> anisotropic ES          0.016170849796 Eh    ::
         :: -> anisotropic XC          0.053552033199 Eh    ::
         :: -> dispersion             -0.144860821022 Eh    ::
         :: -> Gsolv                  -0.052738222151 Eh    ::
         ::    -> Gelec               -0.012131846369 Eh    ::
         ::    -> Gsasa               -0.042997302625 Eh    ::
         ::    -> Ghb                 -0.002933888602 Eh    ::
         ::    -> Gshift               0.005324815444 Eh    ::
         :: repulsion energy           1.920974446653 Eh    ::
         :: add. restraining           0.000000000000 Eh    ::
         :: total charge               0.000000000073 e     ::
         :::::::::::::::::::::::::::::::::::::::::::::::::::::

           -------------------------------------------------
          |                Property Printout                |
           -------------------------------------------------

    * Orbital Energies and Occupations

         #    Occupation            Energy/Eh            Energy/eV
      -------------------------------------------------------------
         1        2.0000           -0.6757441             -18.3879
       ...           ...                  ...                  ...
       123        2.0000           -0.3901456             -10.6164
       124        2.0000           -0.3874960             -10.5443
       125        2.0000           -0.3842137             -10.4550
       126        2.0000           -0.3833340             -10.4310
       127        2.0000           -0.3734260             -10.1614
       128        2.0000           -0.3707380             -10.0883
       129        2.0000           -0.3680198             -10.0143
       130        2.0000           -0.3486083              -9.4861
       131        2.0000           -0.3306153              -8.9965
       132        2.0000           -0.3223948              -8.7728
       133        2.0000           -0.3167841              -8.6201
       134        2.0000           -0.3108205              -8.4579
       135        2.0000           -0.3090363              -8.4093 (HOMO)
       136        0.0000           -0.2790691              -7.5939 (LUMO)
       137                         -0.2511374              -6.8338
       138                         -0.2481780              -6.7533
       139                         -0.2216128              -6.0304
       140                         -0.2080045              -5.6601
       141                         -0.1931472              -5.2558
       142                         -0.1871395              -5.0923
       143                         -0.1616819              -4.3996
       144                         -0.1516510              -4.1266
       145                         -0.1285619              -3.4983
       146                         -0.1262676              -3.4359
       ...                                ...                  ...
       257                          3.8730338             105.3906
      -------------------------------------------------------------
                  HL-Gap            0.0299673 Eh            0.8155 eV
             Fermi-level           -0.2939850 Eh           -7.9997 eV

     #   Z          covCN         q      C6AA      α(0)
     1   7 N        2.506    -0.138    24.032     7.280
     2   6 C        2.953     0.076    26.311     8.413
     3   6 C        2.917    -0.042    29.042     8.837
     4   6 C        2.924    -0.022    28.544     8.761
     5   6 C        2.914    -0.043    29.074     8.842
     6   6 C        2.891     0.050    26.886     8.501
     7   1 H        0.926     0.052     2.296     2.370
     8   1 H        0.926     0.055     2.258     2.350
     9   1 H        0.926     0.045     2.379     2.412
    10   6 C        2.953     0.069    26.448     8.435
    11   7 N        2.543    -0.134    23.928     7.265
    12   6 C        2.890     0.047    26.952     8.512
    13   6 C        2.915    -0.044    29.089     8.844
    14   6 C        2.923    -0.024    28.609     8.771
    15   6 C        2.918    -0.047    29.167     8.856
    16   1 H        0.926     0.047     2.361     2.403
    17   1 H        0.926     0.052     2.300     2.372
    18   1 H        0.926     0.071     2.076     2.253
    19  77 Ir       5.884    -0.152   387.758    36.415
    20   1 H        0.977     0.087     1.907     2.158
    21   5 B        2.627     0.400    16.076     6.777
    22   8 O        1.638    -0.409    21.029     6.190
    23   6 C        3.834     0.130    18.448     6.111
    24   6 C        3.755    -0.121    22.867     6.818
    25   1 H        0.925     0.053     2.282     2.363
    26   1 H        0.925     0.045     2.386     2.415
    27   1 H        0.925     0.050     2.318     2.381
    28   6 C        3.754    -0.110    22.652     6.786
    29   1 H        0.925     0.047     2.354     2.399
    30   1 H        0.925     0.042     2.422     2.434
    31   1 H        0.925     0.028     2.614     2.528
    32   6 C        3.839     0.131    18.431     6.107
    33   8 O        1.637    -0.406    20.970     6.181
    34   6 C        3.755    -0.121    22.866     6.818
    35   1 H        0.925     0.052     2.299     2.371
    36   1 H        0.925     0.046     2.376     2.411
    37   1 H        0.925     0.048     2.341     2.393
    38   6 C        3.754    -0.120    22.846     6.816
    39   1 H        0.925     0.047     2.360     2.402
    40   1 H        0.925     0.052     2.293     2.368
    41   1 H        0.925     0.045     2.384     2.414
    42   5 B        2.632     0.407    15.960     6.748
    43   8 O        1.637    -0.383    20.532     6.116
    44   6 C        3.838     0.129    18.469     6.114
    45   6 C        3.755    -0.126    22.977     6.835
    46   1 H        0.925     0.055     2.254     2.348
    47   1 H        0.925     0.057     2.240     2.341
    48   1 H        0.925     0.050     2.319     2.381
    49   6 C        3.755    -0.121    22.882     6.821
    50   1 H        0.925     0.049     2.333     2.389
    51   1 H        0.925     0.045     2.380     2.412
    52   1 H        0.925     0.053     2.286     2.365
    53   6 C        3.835     0.128    18.485     6.117
    54   8 O        1.638    -0.381    20.486     6.110
    55   6 C        3.755    -0.124    22.942     6.830
    56   1 H        0.925     0.054     2.269     2.355
    57   1 H        0.925     0.055     2.261     2.352
    58   1 H        0.925     0.049     2.333     2.389
    59   6 C        3.755    -0.123    22.924     6.827
    60   1 H        0.925     0.045     2.383     2.414
    61   1 H        0.925     0.053     2.281     2.362
    62   1 H        0.925     0.051     2.313     2.378
    63   5 B        2.627     0.402    16.054     6.772
    64   8 O        1.638    -0.378    20.435     6.102
    65   6 C        3.832     0.125    18.525     6.124
    66   6 C        3.755    -0.130    23.051     6.846
    67   1 H        0.925     0.058     2.220     2.330
    68   1 H        0.925     0.054     2.270     2.356
    69   1 H        0.925     0.049     2.327     2.385
    70   6 C        3.755    -0.129    23.043     6.845
    71   1 H        0.925     0.061     2.191     2.315
    72   1 H        0.925     0.050     2.316     2.380
    73   1 H        0.925     0.052     2.290     2.367
    74   6 C        3.830     0.127    18.493     6.119
    75   8 O        1.637    -0.383    20.534     6.117
    76   6 C        3.755    -0.124    22.928     6.827
    77   1 H        0.925     0.051     2.311     2.377
    78   1 H        0.925     0.053     2.278     2.360
    79   1 H        0.925     0.054     2.269     2.356
    80   6 C        3.755    -0.122    22.899     6.823
    81   1 H        0.925     0.040     2.443     2.444
    82   1 H        0.925     0.049     2.328     2.386
    83   1 H        0.925     0.055     2.263     2.352
    84   1 H        0.926     0.052     2.296     2.370
    85   1 H        0.926     0.051     2.313     2.378
    86   6 C        2.820    -0.046    29.122     8.842
    87   6 C        3.083     0.040    27.017     8.521
    88   6 C        2.931    -0.047    29.169     8.857
    89   6 C        3.198     0.053    26.275     8.355
    90   7 N        2.784    -0.138    23.994     7.275
    91   6 C        2.922    -0.046    29.133     8.851
    92   1 H        0.926     0.038     2.471     2.458
    93   7 N        1.887    -0.331    29.444     8.044
    94   6 C        2.909    -0.059    29.465     8.901
    95   6 C        3.158     0.147    24.533     8.098
    96   1 H        0.860     0.180     1.216     1.727
    97   1 H        0.925     0.030     2.592     2.518
    98   1 H        0.926     0.036     2.498     2.472
    99   6 C        3.755    -0.134    23.137     6.858
   100   1 H        0.925     0.079     1.988     2.205
   101   1 H        0.925     0.066     2.131     2.283
   102   1 H        0.925     0.059     2.212     2.326

 Mol. C6AA /au·bohr⁶  :     111946.869520
 Mol. C8AA /au·bohr⁸  :    2970983.598692
 Mol. α(0) /au        :        518.859182


Wiberg/Mayer (AO) data.
largest (>0.10) Wiberg bond orders for each atom

 ---------------------------------------------------------------------------
     #   Z sym  total        # sym  WBO       # sym  WBO       # sym  WBO
 ---------------------------------------------------------------------------
     1   7 N    3.368 --     6 C    1.387     2 C    1.303    19 Ir   0.421
     2   6 C    3.978 --     3 C    1.352     1 N    1.303    10 C    1.090
     3   6 C    3.988 --     4 C    1.480     2 C    1.352     9 H    0.962
                             6 C    0.105
     4   6 C    3.983 --     3 C    1.480     5 C    1.383    84 H    0.969
     5   6 C    3.980 --     6 C    1.459     4 C    1.383     8 H    0.969
     6   6 C    3.978 --     5 C    1.459     1 N    1.387     7 H    0.957
                             3 C    0.105
     7   1 H    0.997 --     6 C    0.957
     8   1 H    0.996 --     5 C    0.969
     9   1 H    0.998 --     3 C    0.962
    10   6 C    3.979 --    15 C    1.357    11 N    1.302     2 C    1.090
    11   7 N    3.395 --    12 C    1.391    10 C    1.302    19 Ir   0.427
    12   6 C    3.974 --    13 C    1.454    11 N    1.391    18 H    0.951
                            15 C    0.104
    13   6 C    3.982 --    12 C    1.454    14 C    1.388    17 H    0.969
    14   6 C    3.982 --    15 C    1.475    13 C    1.388    85 H    0.969
    15   6 C    3.988 --    14 C    1.475    10 C    1.357    16 H    0.962
                            12 C    0.104
    16   1 H    0.997 --    15 C    0.962
    17   1 H    0.996 --    13 C    0.969
    18   1 H    0.995 --    12 C    0.951
    19  77 Ir   5.147 --    63 B    0.866    42 B    0.857    21 B    0.732
                            86 C    0.574    20 H    0.527    11 N    0.427
                             1 N    0.421
    20   1 H    0.989 --    19 Ir   0.527    86 C    0.355
    21   5 B    3.267 --    33 O    1.110    22 O    1.089    19 Ir   0.732
    22   8 O    2.191 --    21 B    1.089    23 C    0.943
    23   6 C    3.944 --    24 C    0.996    28 C    0.990    22 O    0.943
                            32 C    0.941
    24   6 C    3.994 --    23 C    0.996    26 H    0.984    27 H    0.983
                            25 H    0.983
    25   1 H    0.997 --    24 C    0.983
    26   1 H    0.997 --    24 C    0.984
    27   1 H    0.997 --    24 C    0.983
    28   6 C    3.997 --    23 C    0.990    31 H    0.985    29 H    0.984
                            30 H    0.984
    29   1 H    0.997 --    28 C    0.984
    30   1 H    0.998 --    28 C    0.984
    31   1 H    0.999 --    28 C    0.985
    32   6 C    3.940 --    38 C    0.997    34 C    0.991    23 C    0.941
                            33 O    0.940
    33   8 O    2.199 --    21 B    1.110    32 C    0.940
    34   6 C    3.994 --    32 C    0.991    36 H    0.984    37 H    0.982
                            35 H    0.981
    35   1 H    0.997 --    34 C    0.981
    36   1 H    0.997 --    34 C    0.984
    37   1 H    0.997 --    34 C    0.982
    38   6 C    3.994 --    32 C    0.997    41 H    0.984    39 H    0.983
                            40 H    0.983
    39   1 H    0.998 --    38 C    0.983
    40   1 H    0.997 --    38 C    0.983
    41   1 H    0.997 --    38 C    0.984
    42   5 B    3.339 --    43 O    1.117    54 O    1.114    19 Ir   0.857
    43   8 O    2.224 --    42 B    1.117    44 C    0.935
    44   6 C    3.936 --    45 C    0.997    49 C    0.991    53 C    0.939
                            43 O    0.935
    45   6 C    3.992 --    44 C    0.997    48 H    0.983    46 H    0.982
                            47 H    0.982
    46   1 H    0.997 --    45 C    0.982
    47   1 H    0.997 --    45 C    0.982
    48   1 H    0.996 --    45 C    0.983
    49   6 C    3.994 --    44 C    0.991    50 H    0.983    51 H    0.982
                            52 H    0.979
    50   1 H    0.997 --    49 C    0.983
    51   1 H    0.998 --    49 C    0.982
    52   1 H    0.997 --    49 C    0.979
    53   6 C    3.937 --    55 C    0.996    59 C    0.992    44 C    0.939
                            54 O    0.934
    54   8 O    2.230 --    42 B    1.114    53 C    0.934
    55   6 C    3.993 --    53 C    0.996    58 H    0.983    57 H    0.983
                            56 H    0.982
    56   1 H    0.997 --    55 C    0.982
    57   1 H    0.997 --    55 C    0.983
    58   1 H    0.996 --    55 C    0.983
    59   6 C    3.994 --    53 C    0.992    61 H    0.983    62 H    0.983
                            60 H    0.982
    60   1 H    0.998 --    59 C    0.982
    61   1 H    0.996 --    59 C    0.983
    62   1 H    0.997 --    59 C    0.983
    63   5 B    3.361 --    75 O    1.115    64 O    1.111    19 Ir   0.866
    64   8 O    2.229 --    63 B    1.111    65 C    0.938
    65   6 C    3.938 --    70 C    0.996    66 C    0.991    64 O    0.938
                            74 C    0.938
    66   6 C    3.992 --    65 C    0.991    69 H    0.983    68 H    0.983
                            67 H    0.978
    67   1 H    0.997 --    66 C    0.978
    68   1 H    0.997 --    66 C    0.983
    69   1 H    0.997 --    66 C    0.983
    70   6 C    3.992 --    65 C    0.996    72 H    0.983    73 H    0.982
                            71 H    0.982
    71   1 H    0.996 --    70 C    0.982
    72   1 H    0.996 --    70 C    0.983
    73   1 H    0.997 --    70 C    0.982
    74   6 C    3.935 --    76 C    0.996    80 C    0.991    65 C    0.938
                            75 O    0.936
    75   8 O    2.229 --    63 B    1.115    74 C    0.936
    76   6 C    3.993 --    74 C    0.996    77 H    0.983    78 H    0.982
                            79 H    0.982
    77   1 H    0.996 --    76 C    0.983
    78   1 H    0.997 --    76 C    0.982
    79   1 H    0.997 --    76 C    0.982
    80   6 C    3.995 --    74 C    0.991    81 H    0.984    83 H    0.983
                            82 H    0.983
    81   1 H    0.998 --    80 C    0.984
    82   1 H    0.997 --    80 C    0.983
    83   1 H    0.996 --    80 C    0.983
    84   1 H    0.996 --     4 C    0.969
    85   1 H    0.996 --    14 C    0.969
    86   6 C    3.951 --    88 C    1.421    87 C    1.317    19 Ir   0.574
                            20 H    0.355    94 C    0.103
    87   6 C    3.953 --    86 C    1.317    89 C    1.247    90 N    1.144
    88   6 C    3.985 --    86 C    1.421    91 C    1.388    92 H    0.962
    89   6 C    3.973 --    94 C    1.333    87 C    1.247    93 N    1.199
    90   7 N    3.542 --    95 C    1.217    87 C    1.144    96 H    0.928
                            93 N    0.111
    91   6 C    3.986 --    94 C    1.481    88 C    1.388    97 H    0.970
    92   1 H    0.998 --    88 C    0.962
    93   7 N    2.998 --    95 C    1.550    89 C    1.199    90 N    0.111
    94   6 C    3.983 --    91 C    1.481    89 C    1.333    98 H    0.968
                            86 C    0.103
    95   6 C    3.959 --    93 N    1.550    90 N    1.217    99 C    1.028
    96   1 H    0.967 --    90 N    0.928
    97   1 H    0.997 --    91 C    0.970
    98   1 H    0.996 --    94 C    0.968
    99   6 C    3.991 --    95 C    1.028   100 H    0.980   102 H    0.968
                           101 H    0.968
   100   1 H    0.993 --    99 C    0.980
   101   1 H    0.993 --    99 C    0.968
   102   1 H    0.994 --    99 C    0.968
 ---------------------------------------------------------------------------

Topologies differ in total number of bonds
Writing topology from bond orders to xtbtopo.mol

molecular dipole:
                 x           y           z       tot (Debye)
 q only:       -0.053       0.301      -1.964
   full:       -0.978       0.700      -2.925       8.039
molecular quadrupole (traceless):
                xx          xy          yy          xz          yz          zz
 q only:       23.375       4.546       3.290       8.589      19.695     -26.665
  q+dip:       27.097       3.716       3.487      14.462      28.389     -30.585
   full:       25.127       4.825       6.947      12.606      25.478     -32.074


           -------------------------------------------------
          | TOTAL ENERGY             -147.629762819141 Eh   |
          | GRADIENT NORM               0.032039769606 Eh/α |
          | HOMO-LUMO GAP               0.815451353885 eV   |
           -------------------------------------------------

------------------------------------------------------------------------
 * finished run on 2022/01/14 at 13:04:19.548     
------------------------------------------------------------------------
 total:
 * wall-time:     0 d,  0 h,  0 min,  0.124 sec
 *  cpu-time:     0 d,  0 h,  0 min,  0.720 sec
 * ratio c/w:     5.818 speedup
 SCF:
 * wall-time:     0 d,  0 h,  0 min,  0.092 sec
 *  cpu-time:     0 d,  0 h,  0 min,  0.547 sec
 * ratio c/w:     5.946 speedup

