94
 energy: -136.965318874898 gnorm: 0.077136447027 xtb: 6.4.1 (1a32961)
N        -0.96510000000000   -2.11530000000000   -0.24090000000000
C        -2.24700000000000   -1.69840000000000   -0.36220000000000
C        -3.14040000000000   -2.36820000000000   -1.21200000000000
C        -2.70220000000000   -3.47560000000000   -1.93050000000000
C        -1.37780000000000   -3.89880000000000   -1.78760000000000
C        -0.54290000000000   -3.18670000000000   -0.93510000000000
H         0.49810000000000   -3.45630000000000   -0.78940000000000
H        -0.99570000000000   -4.76030000000000   -2.32770000000000
H        -4.16500000000000   -2.02890000000000   -1.31830000000000
C        -2.62130000000000   -0.50950000000000    0.44100000000000
N        -1.62600000000000    0.07330000000000    1.16020000000000
C        -1.89680000000000    1.15240000000000    1.91690000000000
C        -3.17230000000000    1.70330000000000    1.99650000000000
C        -4.20510000000000    1.11740000000000    1.26270000000000
C        -3.92610000000000    0.00250000000000    0.47820000000000
H        -4.71960000000000   -0.46420000000000   -0.09520000000000
H        -3.34630000000000    2.57510000000000    2.62070000000000
H        -1.04450000000000    1.57420000000000    2.43690000000000
Ir        0.42150000000000   -0.81650000000000    0.91330000000000
H         0.87260000000000   -2.23030000000000    1.54050000000000
B         0.50670000000000    0.41560000000000   -0.81540000000000
O         0.19500000000000   -0.04700000000000   -2.09150000000000
C         0.00650000000000    1.10040000000000   -2.95430000000000
C         0.49020000000000    0.74740000000000   -4.35780000000000
H         1.51610000000000    0.37380000000000   -4.33700000000000
H         0.44730000000000    1.62240000000000   -5.01670000000000
H        -0.14740000000000   -0.03390000000000   -4.78430000000000
C        -1.50120000000000    1.39560000000000   -2.96670000000000
H        -1.75370000000000    2.21460000000000   -3.64850000000000
H        -2.03200000000000    0.49450000000000   -3.28930000000000
H        -1.85170000000000    1.65210000000000   -1.96220000000000
C         0.84230000000000    2.20670000000000   -2.22040000000000
O         0.75200000000000    1.78260000000000   -0.83690000000000
C         2.32930000000000    2.18620000000000   -2.59900000000000
H         2.74130000000000    1.18500000000000   -2.45750000000000
H         2.48870000000000    2.51300000000000   -3.63180000000000
H         2.87200000000000    2.86270000000000   -1.93200000000000
C         0.28440000000000    3.62290000000000   -2.33660000000000
H        -0.72650000000000    3.69040000000000   -1.92910000000000
H         0.92130000000000    4.31480000000000   -1.77610000000000
H         0.26430000000000    3.94810000000000   -3.38320000000000
B         1.56300000000000    0.60960000000000    1.84840000000000
O         2.92780000000000    0.55230000000000    2.15020000000000
C         3.36330000000000    1.88660000000000    2.50260000000000
C         4.53140000000000    1.78590000000000    3.47740000000000
H         4.27910000000000    1.16090000000000    4.33690000000000
H         5.39390000000000    1.33790000000000    2.97340000000000
H         4.82390000000000    2.77870000000000    3.83820000000000
C         3.79700000000000    2.56850000000000    1.19670000000000
H         4.20020000000000    3.57090000000000    1.37680000000000
H         4.56740000000000    1.95560000000000    0.72110000000000
H         2.95240000000000    2.63260000000000    0.50540000000000
C         2.05040000000000    2.50090000000000    3.09320000000000
O         1.03750000000000    1.81620000000000    2.31910000000000
C         1.89100000000000    4.00450000000000    2.88650000000000
H         1.87290000000000    4.25440000000000    1.82410000000000
H         0.94940000000000    4.34260000000000    3.33170000000000
H         2.71080000000000    4.55150000000000    3.36630000000000
C         1.82470000000000    2.13200000000000    4.56520000000000
H         1.92610000000000    1.05330000000000    4.71320000000000
H         2.52610000000000    2.65280000000000    5.22540000000000
H         0.80630000000000    2.41580000000000    4.84900000000000
B         2.27820000000000   -1.33090000000000    0.17410000000000
O         2.89460000000000   -2.57740000000000    0.38450000000000
C         4.26930000000000   -2.48200000000000   -0.07210000000000
C         5.10900000000000   -2.05380000000000    1.14010000000000
H         4.76350000000000   -1.08740000000000    1.51750000000000
H         4.98050000000000   -2.79470000000000    1.93590000000000
H         6.17420000000000   -1.99290000000000    0.89300000000000
C         4.71950000000000   -3.84660000000000   -0.58470000000000
H         4.75280000000000   -4.56130000000000    0.24420000000000
H         5.72330000000000   -3.78370000000000   -1.02010000000000
H         4.03500000000000   -4.23600000000000   -1.34170000000000
C         4.16440000000000   -1.36220000000000   -1.16300000000000
O         3.08520000000000   -0.55030000000000   -0.65400000000000
C         5.40720000000000   -0.48870000000000   -1.31550000000000
H         6.27320000000000   -1.09010000000000   -1.61530000000000
H         5.23300000000000    0.26930000000000   -2.08590000000000
H         5.64270000000000    0.02650000000000   -0.38240000000000
C         3.71800000000000   -1.89830000000000   -2.53110000000000
H         2.82530000000000   -2.52160000000000   -2.42740000000000
H         3.46090000000000   -1.05250000000000   -3.17550000000000
H         4.50570000000000   -2.48290000000000   -3.01790000000000
H        -3.38500000000000   -4.00130000000000   -2.59310000000000
H        -5.21400000000000    1.52080000000000    1.29960000000000
C         0.23590000000000   -1.68140000000000    2.96030000000000
N        -0.96467818685679   -2.09411294902729    3.37960298900701
C         1.33402788163708   -1.78667252611467    3.82331452287531
C        -1.05311291121718   -2.56848132907275    4.61602327136039
C         1.14683053270782   -2.37607415242575    5.05337116861703
H         2.31502478514105   -1.48479398740596    3.48889013975229
N        -0.06108925211359   -2.77365697749700    5.46941968286063
H        -2.03983149593890   -2.86303120920487    4.95481447236541
H         1.97082735515262   -2.58280901010660    5.72794729380487
94
 energy: -136.972152650835 gnorm: 0.048613803265 xtb: 6.4.1 (1a32961)
N        -0.95774752120176   -2.09666388404868   -0.25889978580418
C        -2.23614773877933   -1.68959191200780   -0.36507913845084
C        -3.13265140099381   -2.36259435334140   -1.20383192088394
C        -2.70355032661562   -3.46435493930935   -1.92062472433846
C        -1.38464167333360   -3.88412939915262   -1.78236065500017
C        -0.55251471441152   -3.16748292809722   -0.94371373862185
H         0.48153921015359   -3.44760643419017   -0.79576000248062
H        -1.00869955329088   -4.74410926545365   -2.31794469824206
H        -4.15326502387100   -2.02737600188121   -1.30636011948308
C        -2.60764699460330   -0.51344791403803    0.43760942763927
N        -1.61600210384544    0.06966075706290    1.14531831101096
C        -1.89644460262523    1.13756227121131    1.89539491421367
C        -3.16452236701455    1.68477807533620    1.98549673286395
C        -4.19440259062402    1.10061524808906    1.25861999325964
C        -3.91130381096478   -0.00610350038748    0.47876583668996
H        -4.70229834865543   -0.46960755115511   -0.09046116487580
H        -3.33977643739887    2.54843020320273    2.61158895647250
H        -1.05377266171604    1.55964671735748    2.42197699677915
Ir        0.42150000000000   -0.81650000000000    0.91330000000000
H         0.87260000000000   -2.23030000000000    1.54050000000000
B         0.48593433745387    0.42710136755411   -0.78914669688264
O         0.17486747193968   -0.03375101453368   -2.06140387544617
C         0.00967833049194    1.09769633343562   -2.94307041310896
C         0.48894782820460    0.74786793189048   -4.34785454248639
H         1.50798121529446    0.37139608625216   -4.32681470917209
H         0.44378032482390    1.62327572994966   -4.99624856961287
H        -0.14981957588805   -0.02808140969132   -4.76811994061189
C        -1.49448752991446    1.39942824432643   -2.96897026783433
H        -1.73297146902851    2.21228579130221   -3.65311625044886
H        -2.02401364516344    0.50213340542693   -3.28889504505530
H        -1.84102367517259    1.65392961954677   -1.96724829630402
C         0.83148130082953    2.20791801681908   -2.21221561563978
O         0.75504091236487    1.78158814031500   -0.83450237463469
C         2.31401071130253    2.19150497141557   -2.59961716171416
H         2.71830427696897    1.19238491869260   -2.44993622952217
H         2.46538369188453    2.51301130245762   -3.62928009941117
H         2.85628524925889    2.86627530153559   -1.93830745967087
C         0.27966761356794    3.62379678216780   -2.33871862996597
H        -0.72351005043423    3.69217491944115   -1.92618970436859
H         0.91925153331521    4.30739525965044   -1.78200795479356
H         0.26181504518741    3.93628489786410   -3.38282932734379
B         1.56442478299295    0.61830203709213    1.85535380814809
O         2.92420633646252    0.56459855189335    2.13891939352625
C         3.36375829865993    1.88675477687865    2.50994147759804
C         4.53373907993857    1.78865120038821    3.48031728977583
H         4.28216728713993    1.16067229534998    4.33103560463069
H         5.38862095087023    1.34454580023786    2.97213679843575
H         4.81627339799966    2.77896329439164    3.83604382603052
C         3.79873073619307    2.57335601434812    1.21097099106690
H         4.20002895379058    3.56890489452518    1.39524150613119
H         4.56274161356026    1.96193648495831    0.73389542068357
H         2.95026114163556    2.62583868567239    0.53001337495274
C         2.05390112893917    2.50534313105521    3.09036513399047
O         1.04082957261601    1.80928887489376    2.33729362537352
C         1.89420211426940    4.00716078262888    2.88999923169696
H         1.86843019447373    4.25021707917005    1.83164574865324
H         0.95664371606419    4.33554570065785    3.33678243476413
H         2.71465018824006    4.54330312842176    3.36616663114409
C         1.83268062422176    2.14048015052652    4.56258668268381
H         1.93528020305891    1.06467478484673    4.70160390948963
H         2.53354507320053    2.66153549339432    5.21209526051643
H         0.81798616610968    2.41821494468787    4.84732753629469
B         2.27820000000000   -1.33090000000000    0.17410000000000
O         2.90201602046891   -2.56069635043018    0.39275218451720
C         4.26622876078920   -2.48292982729185   -0.07838733338443
C         5.11123652571959   -2.05815399178617    1.12715109141915
H         4.75564533308778   -1.09775441640901    1.49834962055011
H         4.98081776667036   -2.79405375612253    1.91998653289156
H         6.16867526363454   -1.99799375402552    0.87468147834317
C         4.72054283004601   -3.84492523903502   -0.58882217139445
H         4.75081254623884   -4.54977819617834    0.24078959622689
H         5.71804600401460   -3.77294278435833   -1.02145520966267
H         4.03454388085871   -4.23214154968162   -1.33736519043641
C         4.16603031184738   -1.35982286505554   -1.15840745032164
O         3.07345479388863   -0.56364247934743   -0.66145922849020
C         5.40892706153278   -0.49100966875294   -1.31614515636335
H         6.26502550147565   -1.09657934828633   -1.61232357381348
H         5.23004438019207    0.26001555798560   -2.08432729504907
H         5.63713515573614    0.02352891892046   -0.38723400793738
C         3.72861362820197   -1.89860410753810   -2.52646066313012
H         2.83673877713899   -2.51433654737639   -2.41810349071049
H         3.47119743231720   -1.05680885089741   -3.16781997465015
H         4.51880317575432   -2.47523522500263   -3.00437104604552
H        -3.38345609672128   -3.98877437771242   -2.57821933604827
H        -5.19849384848794    1.50164375898916    1.29839774651585
C         0.23590000000000   -1.68140000000001    2.96029999999999
N        -0.96485125067246   -2.09130843709125    3.37509562571911
C         1.33242109460762   -1.77893836712416    3.83673335119441
C        -1.06179225365878   -2.55753218172694    4.61011952906917
C         1.13096014829545   -2.36353477557995    5.06648957823651
H         2.31436012143074   -1.47642374242386    3.50854154609702
N        -0.08005905047567   -2.75866072686806    5.46969315686302
H        -2.05089244335227   -2.85318971181028    4.94200136502786
H         1.94769028496742   -2.56791677038504    5.74949344065478
94
 energy: -136.974274121116 gnorm: 0.040195223432 xtb: 6.4.1 (1a32961)
N        -0.94640814521685   -2.08900176338359   -0.26991704626233
C        -2.22258130726927   -1.68458690713110   -0.36632255305031
C        -3.12571979858957   -2.35621608826421   -1.19786077901902
C        -2.70629434555531   -3.45531084487781   -1.91660824033059
C        -1.38800000636967   -3.87525845053597   -1.78488997881787
C        -0.55411714404456   -3.15747400088979   -0.95369738387518
H         0.47917415472605   -3.44102848483779   -0.81668650261091
H        -1.01908592119314   -4.73617200555916   -2.31730087680178
H        -4.14553343215109   -2.02326776284108   -1.28968373103263
C        -2.59050663739140   -0.51772143547560    0.43458118298364
N        -1.60297402831658    0.06170235040318    1.14268183360225
C        -1.89061487793321    1.12363007676576    1.88738955232982
C        -3.15540917464113    1.66946166177606    1.98170907742986
C        -4.18475168221700    1.08446031752002    1.25613608708634
C        -3.89530489951640   -0.01492715615688    0.47553978280523
H        -4.68347904173309   -0.48116096208144   -0.09052991753413
H        -3.33208687960591    2.52768073261011    2.60920948300213
H        -1.05400865814089    1.55401597729475    2.41382131664220
Ir        0.42150000000000   -0.81650000000000    0.91330000000000
H         0.87260000000000   -2.23030000000000    1.54050000000000
B         0.49229650198637    0.43918029545017   -0.76621415983419
O         0.15483467371637   -0.02227285288171   -2.02945903329475
C         0.00396542182228    1.09647943756524   -2.92178573455308
C         0.48730011083313    0.74155998553734   -4.32427404337613
H         1.50263066798895    0.36177853680001   -4.30482081573116
H         0.44167115477953    1.62009129592926   -4.96264271664082
H        -0.15539843185809   -0.02830588443819   -4.74278042737037
C        -1.49849103271998    1.40712191963014   -2.96670652612116
H        -1.71902859551936    2.21606025756747   -3.65633643354139
H        -2.02693239188142    0.51208942091245   -3.28753729319132
H        -1.84730161465845    1.66453455149026   -1.96894972149434
C         0.82250916423066    2.20967993682859   -2.19859837659302
O         0.75871838030616    1.78739038761737   -0.82532465933864
C         2.30227598875169    2.19871674378485   -2.59676587615465
H         2.70366109953814    1.20123477913721   -2.44028790005679
H         2.43991427576164    2.51281966963005   -3.62729696863949
H         2.84451526006706    2.87794583580402   -1.94385295862458
C         0.26736750904209    3.62370840877449   -2.33389788543136
H        -0.73137027817288    3.69711115509383   -1.91735351215163
H         0.91200238672887    4.30596196396874   -1.78673894228355
H         0.24960052456684    3.91971685860166   -3.37918979501030
B         1.56624053395509    0.62358076134284    1.86703406732323
O         2.92241211811907    0.57402983865929    2.13013477727843
C         3.36305009105927    1.88729023684849    2.51400664405988
C         4.53251591376870    1.78857821689877    3.48564137211528
H         4.28524671360023    1.15604405081676    4.33120662755456
H         5.38452311966120    1.35187415104385    2.97219738661440
H         4.80513868345803    2.77844280861400    3.83930193066851
C         3.80145653557759    2.58366415036284    1.22191524760623
H         4.19928300771733    3.57518304842285    1.41398415673128
H         4.56436083689609    1.97510157004508    0.74435124219671
H         2.95098993767610    2.63015764323281    0.54623514658659
C         2.05573589220571    2.50519420114487    3.09400470727731
O         1.04366309834065    1.80179723215827    2.35510465205665
C         1.89717734411580    4.00664837121179    2.89131487155841
H         1.86305336967506    4.24762099173524    1.83502629200074
H         0.96463328816020    4.33073450874868    3.34451839556399
H         2.72107219407976    4.53429343576089    3.36255756596392
C         1.84505082450548    2.14913225506421    4.57067487880887
H         1.95070988841297    1.07490886167808    4.70460296294393
H         2.54827669499577    2.67404324336812    5.20877890407278
H         0.83227510897448    2.42319290704196    4.85656733143605
B         2.27820000000000   -1.33090000000000    0.17410000000000
O         2.90557258384073   -2.54741794270447    0.40253785928158
C         4.26017776550699   -2.48005260010772   -0.07994153815704
C         5.11776719554721   -2.05932070391024    1.11772180365191
H         4.75739468562804   -1.10209096267172    1.48657349893512
H         4.98924666089859   -2.79421288858500    1.90812333803310
H         6.16913848839899   -1.99983950530274    0.85521358790517
C         4.71294191635872   -3.84142405428752   -0.59429261560680
H         4.74653185017353   -4.54029960557890    0.23628348880081
H         5.70593668744174   -3.75960426312166   -1.02653294268730
H         4.02637163217452   -4.22991520755244   -1.33796412290803
C         4.16074071683797   -1.35875384454914   -1.15765110132847
O         3.05981343728711   -0.57301537148312   -0.67015395141893
C         5.40440139147126   -0.49075340399391   -1.31191410775521
H         6.25266437474801   -1.10328553171775   -1.60311679071848
H         5.22601418653084    0.25340776517629   -2.08276216854685
H         5.62970041857164    0.02596111250984   -0.38636760843417
C         3.73786961757629   -1.90067584402211   -2.52951681085117
H         2.84734580126607   -2.51399222911689   -2.42041750011527
H         3.48362876739619   -1.06047852332056   -3.17057973131263
H         4.53448990669999   -2.47216865242022   -2.99492321954744
H        -3.38914035904293   -3.97995885353595   -2.56630288133046
H        -5.18795557095267    1.47970439491779    1.29979954122662
C         0.23590000000000   -1.68140000000002    2.96029999999997
N        -0.96814344865141   -2.08748726720823    3.36313724078278
C         1.32406386072804   -1.76717868466371    3.85593268371676
C        -1.08260537973768   -2.54138086554576    4.59983955831968
C         1.10161668543108   -2.34032881562731    5.08739617205679
H         2.30816124964899   -1.46255613948912    3.53850319434707
N        -0.11533169983500   -2.73234657260182    5.47417726741462
H        -2.07725114950179   -2.83306541889428    4.92091053375022
H         1.90708124474714   -2.53495934307313    5.78673325560360
94
 energy: -136.975357941116 gnorm: 0.039946387541 xtb: 6.4.1 (1a32961)
N        -0.93251129783846   -2.08484019022176   -0.28381184866909
C        -2.21018387635418   -1.68263109214904   -0.36964104861550
C        -3.12052190671390   -2.35509408096201   -1.19364873304974
C        -2.70848615315098   -3.45420468774679   -1.91483170998259
C        -1.38769483497036   -3.87313729151657   -1.79329016701430
C        -0.54748090601740   -3.15229879259959   -0.97080287955538
H         0.48660646588563   -3.43876315914290   -0.84367612121725
H        -1.02425408328999   -4.73534573567032   -2.32586817415177
H        -4.14077906165942   -2.02192403529372   -1.27587118099167
C        -2.57612718408114   -0.52101626506455    0.43286162715713
N        -1.58955960599754    0.05946678775968    1.14114125328851
C        -1.88184879307966    1.11922054625370    1.88529990982198
C        -3.14803818653815    1.66011864037831    1.98425686582017
C        -4.17778042469246    1.07181345513545    1.25932792417281
C        -3.88326270320390   -0.02299171942052    0.47596268555295
H        -4.66858411542402   -0.49100553845817   -0.09181878137617
H        -3.32675823072311    2.51489232663893    2.61433434525076
H        -1.04947666010396    1.55425488061613    2.41509084488164
Ir        0.42150000000000   -0.81650000000000    0.91330000000000
H         0.87260000000000   -2.23030000000000    1.54050000000000
B         0.47420132415662    0.45741633958694   -0.74330171664895
O         0.12992473414373   -0.01048728791844   -2.00173313829366
C        -0.00717392924801    1.09875181362447   -2.90181927810196
C         0.48370614868412    0.73313634824794   -4.29984530323639
H         1.49640112294490    0.34755163747660   -4.27468746103104
H         0.44467001213337    1.61170334039983   -4.93756466457271
H        -0.16236020068753   -0.03360500919677   -4.71799652151248
C        -1.50846960658772    1.41744453831660   -2.96392506387788
H        -1.71347172427301    2.22408999039021   -3.66001877006445
H        -2.03729219119509    0.52372187218982   -3.28659390526291
H        -1.86556616687169    1.68110951286760   -1.97107858662762
C         0.81216235155852    2.21447698191765   -2.18350052097417
O         0.75832202723270    1.79924246924687   -0.81123027363017
C         2.29003847826418    2.20575373948432   -2.59228031065702
H         2.69364229433586    1.21038342875795   -2.42946700305484
H         2.41707014475213    2.51159166536716   -3.62604678441638
H         2.83360982456173    2.89249220797545   -1.94887538425287
C         0.25493790074577    3.62791039916641   -2.32639768464300
H        -0.74118289588153    3.70498114053256   -1.90507929510239
H         0.90356386465290    4.31449232286642   -1.78995474033660
H         0.23195548801118    3.91054254771476   -3.37480034422962
B         1.56760910470535    0.62713029355780    1.87368879701764
O         2.92327590003934    0.57997691745234    2.12147685694504
C         3.36355079632490    1.88777046346219    2.51696343835705
C         4.53318444186651    1.78639554338508    3.48978230276325
H         4.28903810362139    1.14764022040258    4.33120140785463
H         5.38684723228002    1.35767038273733    2.97299061545165
H         4.79847402741089    2.77607518889326    3.84800431660001
C         3.80471369246325    2.59512483161938    1.23081390896586
H         4.19849644991038    3.58560923713328    1.43216269308096
H         4.57061584763648    1.99165490680601    0.75209554177625
H         2.95500349427821    2.64212835021486    0.55483571067323
C         2.05746774161617    2.50421268792044    3.10079156781753
O         1.04349495419494    1.79482513905891    2.37418125081935
C         1.89706248724978    4.00588590680521    2.89437885794043
H         1.85364530033728    4.24454311423922    1.83808045283397
H         0.96923286985835    4.33090521239005    3.35580643014186
H         2.72647797701292    4.53116028017512    3.35731886803730
C         1.85858412267961    2.15688163451053    4.58233293534908
H         1.96829762074526    1.08381965112557    4.71925927737344
H         2.56573086272385    2.68801176384799    5.20987225586137
H         0.84726047737713    2.42970755617503    4.87293094195307
B         2.27820000000000   -1.33090000000000    0.17410000000001
O         2.90900070802764   -2.53921010289920    0.41341377933858
C         4.25615433372065   -2.47750207488876   -0.08070970227552
C         5.12618935017829   -2.05891143828803    1.10989612381182
H         4.76727453718752   -1.10247408148900    1.48129991753618
H         5.00319730089690   -2.79476474131704    1.89970273036474
H         6.17407216683745   -1.99986451696963    0.83665024039438
C         4.70447092779486   -3.84031291626407   -0.59808359811105
H         4.74319868699973   -4.53772985666278    0.23297318857047
H         5.69440049666197   -3.75446309115178   -1.03507321789768
H         4.01431158932917   -4.22924603258690   -1.33776025851623
C         4.15569652859590   -1.35770494812338   -1.15955904510651
O         3.04822980581187   -0.57836871546353   -0.68100459482259
C         5.39875927975162   -0.48695513103764   -1.30905011209390
H         6.24617711751691   -1.10312633922031   -1.59317554192960
H         5.22353740061933    0.25298808857176   -2.08413884428444
H         5.61936138924556    0.03305867461198   -0.38462310064639
C         3.74626940611955   -1.90307740975877   -2.53519767945395
H         2.85674007561349   -2.51797301489953   -2.43158927240941
H         3.49672856677776   -1.06399187512056   -3.17909911602956
H         4.54991752309699   -2.47218645628463   -2.98976669782829
H        -3.39645904659413   -3.97882366139962   -2.55845216685555
H        -5.18246757802110    1.46144649722694    1.30597128450176
C         0.23590000000001   -1.68140000000003    2.96029999999994
N        -0.97400202101572   -2.08281287093989    3.34708953493027
C         1.31038313457528   -1.75413360628564    3.87640719047207
C        -1.11113206278898   -2.52046147118901    4.58798246255031
C         1.06424716114437   -2.30946673329695    5.11190754629712
H         2.29817264689314   -1.44871249866017    3.57209398006396
N        -0.15973449325536   -2.69739710504940    5.48205940543932
H        -2.11202957257895   -2.80825079384811    4.89472966875973
H         1.85614638428261   -2.49025932201000    5.83139321301574
94
 energy: -136.976607244563 gnorm: 0.040188583988 xtb: 6.4.1 (1a32961)
N        -0.91619397197834   -2.08450874198280   -0.29785604394677
C        -2.19662540421607   -1.68433582144959   -0.37214208330181
C        -3.11381810400398   -2.35781997223638   -1.18924554056347
C        -2.70878178779920   -3.45675887561270   -1.91414687225040
C        -1.38418722534120   -3.87264503581593   -1.80668170215261
C        -0.53617085691909   -3.14916205237599   -0.99300736983510
H         0.50089258497195   -3.43446665149012   -0.88189008484286
H        -1.02583611917654   -4.73519106927506   -2.34253812482368
H        -4.13532432095465   -2.02487931554733   -1.25996170089366
C        -2.56097485362464   -0.52689269868296    0.43376093060038
N        -1.57510990496029    0.05282011177200    1.14653279877706
C        -1.87082423256820    1.11306155326465    1.89062985758460
C        -3.13878203771926    1.64985209602410    1.99145454156669
C        -4.16883446990491    1.05899059541938    1.26579965210463
C        -3.86956886832087   -0.03057025931672    0.47750689642766
H        -4.65199392179929   -0.49963861121105   -0.09376709857615
H        -3.31946198374845    2.50203291276563    2.62447237093018
H        -1.04150641161321    1.55396647517669    2.42161333541773
Ir        0.42150000000000   -0.81650000000000    0.91330000000000
H         0.87260000000001   -2.23030000000000    1.54050000000001
B         0.47364170696286    0.47699837305687   -0.71831684199123
O         0.09806573885331    0.00561930485100   -1.96712655210315
C        -0.02501996999809    1.10461790028954   -2.87478406207970
C         0.47537342110615    0.72025981069877   -4.26571554705236
H         1.48390552237473    0.32356127682710   -4.22681325755839
H         0.45159245513857    1.59454112108838   -4.91079702432900
H        -0.17524665346743   -0.04382886831269   -4.68257897531331
C        -1.52425010490872    1.43520853716764   -2.95834698992698
H        -1.71152232550790    2.23879391634068   -3.66340367901147
H        -2.05531010854060    0.54328778323712   -3.28310729083732
H        -1.89498400840316    1.70918431364706   -1.97279886432295
C         0.79925149397214    2.22440391146909   -2.16475614449068
O         0.76026233291780    1.81567490233964   -0.79280539605858
C         2.27488260232510    2.21855868695631   -2.58596598916696
H         2.68470147576026    1.22695842763418   -2.41347734021842
H         2.38983158215011    2.51139250865412   -3.62511582704888
H         2.82017453181628    2.91743755536755   -1.95643148640861
C         0.23674014094681    3.63633473467210   -2.31461391691562
H        -0.75552122634299    3.71656536913499   -1.88376935501092
H         0.89025474047303    4.33156742172588   -1.79421087808854
H         0.20141214581948    3.90509440562366   -3.36687119965841
B         1.56895222447179    0.62891274968734    1.88266779843960
O         2.92689290189291    0.58733200804044    2.10961053885784
C         3.36632437969959    1.88964840817605    2.52004790432694
C         4.53639962498521    1.78156502824311    3.49362135450763
H         4.29577986504987    1.13192651279583    4.32831913276863
H         5.39420732598726    1.36463430284723    2.97296012557675
H         4.79419678123032    2.76958701208248    3.86369319151047
C         3.81092026217323    2.61248513599934    1.24218160224754
H         4.19850142096989    3.60305186621266    1.45679047011109
H         4.58340774527952    2.01804900340920    0.76176791405856
H         2.96444428157364    2.66315880802330    0.56216322171191
C         2.06146933999155    2.50283484297008    3.11318521910448
O         1.04322710778665    1.78533184325073    2.40280707753498
C         1.89585384248253    4.00423504163307    2.89911426771189
H         1.83677103960204    4.23770209233271    1.84176731112871
H         0.97509509518405    4.33287476822314    3.37345639529878
H         2.73325750373602    4.53184927012214    3.34651003661185
C         1.87937991090417    2.16868363905280    4.60123008177995
H         1.99466311193129    1.09741940842408    4.74822941361858
H         2.59218186529978    2.70965205948145    5.21461709467242
H         0.87018365113837    2.44140854771736    4.90009068398820
B         2.27820000000000   -1.33089999999999    0.17410000000001
O         2.91641986384513   -2.52990663424644    0.42797948619148
C         4.25497861686748   -2.47371851936786   -0.08171931978859
C         5.14169226005629   -2.05768914076053    1.09925268934822