21
 energy: -31.049604611304 gnorm: 0.051097764788 xtb: 6.4.1 (1a32961)
C         1.37152000000000   -0.16110000000000   -0.00161000000000
C         0.84900000000000    1.13656000000000    0.01464000000000
C        -0.52742000000000    1.33365000000000    0.00298000000000
C        -1.38143000000000    0.23527000000000   -0.03280000000000
C        -0.85541000000000   -1.06072000000000   -0.04848000000000
C         0.53317000000000   -1.29155000000000   -0.02279000000000
C         1.07577000000000   -2.66772000000000   -0.02677000000000
N         0.32695000000000   -3.60338000000000   -0.66642000000000
C         0.79785000000000   -4.87001000000000   -0.71163000000000
C         1.99185000000000   -5.27049000000000   -0.14055000000000
C         2.74628000000000   -4.31610000000000    0.52531000000000
C         2.28426000000000   -3.00285000000000    0.58748000000000
H         2.45287000000000   -0.27509000000000   -0.01728000000000
H         1.52187000000000    1.99009000000000    0.02975000000000
H        -0.93419000000000    2.34125000000000    0.01380000000000
H        -2.45799000000000    0.38183000000000   -0.05114000000000
H        -1.54207000000000   -1.90581000000000   -0.07924000000000
H         0.16615000000000   -5.57811000000000   -1.24021000000000
H         2.32336000000000   -6.30015000000000   -0.20964000000000
H         3.68661000000000   -4.58711000000000    0.99659000000000
H         2.86475000000000   -2.26133000000000    1.12541000000000
21
 energy: -31.052584517426 gnorm: 0.018592969427 xtb: 6.4.1 (1a32961)
C         1.37206645903762   -0.17329184551066    0.00204201161941
C         0.85157851872789    1.11193310317292    0.01221001501104
C        -0.51970464882907    1.30919999741034    0.00037174168377
C        -1.36759459917366    0.21299323819165   -0.03447070312784
C        -0.84665367668886   -1.07155256223904   -0.05004409926630
C         0.53283940994892   -1.29002507264456   -0.02322823507426
C         1.07346839430046   -2.66162274019097   -0.03252824609592
N         0.33342545758085   -3.58881086658350   -0.66040807439734
C         0.78777675962928   -4.83802822437434   -0.70690842309366
C         1.98218996144369   -5.24634864410524   -0.14008044198002
C         2.74047885912489   -4.29696890334412    0.52693880255941
C         2.28184143157180   -2.99034941669259    0.58303986216058
H         2.44718542976143   -0.29564432418410   -0.01164038472522
H         1.52150018075916    1.96102600641073    0.02881073599552
H        -0.92539510142930    2.31261000978157    0.01410531561777
H        -2.43917871662454    0.35749354295023   -0.05062876528005
H        -1.51757442869100   -1.91951277801851   -0.07957971766789
H         0.15017255915244   -5.53695151712660   -1.23481441634679
H         2.30725934190708   -6.27444141510900   -0.21252771117509
H         3.67546906026637   -4.56898905148356    0.99861907732840
H         2.85259934822455   -2.24558853631065    1.11812165625449
21
 energy: -31.052990231420 gnorm: 0.003362562364 xtb: 6.4.1 (1a32961)
C         1.37741406858320   -0.17792128893612    0.00290870136113
C         0.85463650997190    1.10171716728186    0.01287914450203
C        -0.51667399405780    1.29608994318552    0.00022496372178
C        -1.36243917407743    0.19914449479200   -0.03475522371570
C        -0.84206699381293   -1.08091412693694   -0.05065106782874
C         0.53529696345699   -1.28750056930913   -0.02287423321351
C         1.07205954019235   -2.65692915095941   -0.03349468045497
N         0.33608469541825   -3.57883479699640   -0.65526947548986
C         0.77970520112951   -4.81980076319619   -0.70638376781918
C         1.97570227637288   -5.23396585714898   -0.14119206296803
C         2.73723697897852   -4.28686377669730    0.52702533513393
C         2.28193577728277   -2.98186343716546    0.58289726395360
H         2.44951642096619   -0.30861951277581   -0.00745396290252
H         1.52174285525744    1.95088000057183    0.02830864967220
H        -0.92293705069833    2.29680650564289    0.01158161128031
H        -2.43255584298595    0.34244046993233   -0.05158860549790
H        -1.49901468815837   -1.93637503363287   -0.08247746797171
H         0.13654845946252   -5.51519399178868   -1.23125069360239
H         2.29552606309678   -6.26167071661409   -0.21471970218915
H         3.66924961534852   -4.56124855943376    0.99928409486718
H         2.84678231827298   -2.23224699981529    1.11440117916149
21
 energy: -31.053015159619 gnorm: 0.001625290911 xtb: 6.4.1 (1a32961)
C         1.38018584535630   -0.17585273151562    0.00428821532355
C         0.85463157615531    1.10309992504592    0.01293891693762
C        -0.51748697506287    1.29445200991809   -0.00056444348098
C        -1.36269361358204    0.19664093480428   -0.03540669230846
C        -0.84042848456299   -1.08297249642302   -0.05092159895684
C         0.53799748562704   -1.28554933842711   -0.02205033706650
C         1.07391826094138   -2.65488486400719   -0.03399282911371
N         0.33612507820830   -3.57596919877743   -0.65431470660847
C         0.77644116850284   -4.81832019180283   -0.70546930269449
C         1.97312090227116   -5.23375971786995   -0.14086714671511
C         2.73619026296244   -4.28719759587491    0.52677298128736
C         2.28388374145087   -2.98102328238711    0.58290995336665
H         2.45198079214733   -0.30828225535480   -0.00679433522021
H         1.51975409796192    1.95410428020957    0.02864003821610
H        -0.92509611125073    2.29444575121296    0.01102852626317
H        -2.43314643567080    0.33935513097592   -0.05222084111891
H        -1.49219481107832   -1.94245139173576   -0.08362772059165
H         0.13297082506643   -5.51326232642924   -1.23087196238986
H         2.29200163101228   -6.26145463000885   -0.21522842923336
H         3.66798471986784   -4.56337740551499    0.99871333416425
H         2.84761004367630   -2.23061060603793    1.11443837993987
21
 energy: -31.053024511017 gnorm: 0.001470677105 xtb: 6.4.1 (1a32961)
C         1.38444821864012   -0.17069337055112    0.00522378012943
C         0.85345975477614    1.10673449223665    0.01416381534972
C        -0.51973718564011    1.29198739753819   -0.00047731980550
C        -1.36320058851999    0.19251533582022   -0.03644937719762
C        -0.83668389989827   -1.08558149918907   -0.05224842951260
C         0.54359767572391   -1.28190043312313   -0.02221909249846
C         1.07777901754968   -2.65181964383080   -0.03352995933265
N         0.33649297140193   -3.57099711353300   -0.65287335599885
C         0.77211184793112   -4.81577517452778   -0.70513742121279
C         1.96866448492601   -5.23402202023152   -0.14096649722961
C         2.73480955155845   -4.28934123637467    0.52579910265824
C         2.28806908924446   -2.98126091368851    0.58307421706588
H         2.45605002690411   -0.30422731072697   -0.00435773079567
H         1.51416186891050    1.96165998076459    0.03003440379007
H        -0.93041721333279    2.29080761679863    0.00966791970923
H        -2.43418321701474    0.33375831449955   -0.05476729252315
H        -1.47940086016485   -1.95178271411256   -0.08646853050574
H         0.12553588378056   -5.51048755522052   -1.22714566072529
H         2.28421378864942   -6.26266586956196   -0.21450095866052
H         3.66602419201167   -4.56967301835606    0.99730289131506
H         2.85195459256267   -2.23010526463017    1.11327549598082
21
 energy: -31.053028150858 gnorm: 0.000487576328 xtb: 6.4.1 (1a32961)
C         1.38362941407794   -0.17046661805553    0.00577489339902
C         0.85283114662570    1.10680469001775    0.01422003575616
C        -0.52008243549514    1.29232508992154   -0.00101050835504
C        -1.36302470216465    0.19264186424825   -0.03714353643621
C        -0.83627479840604   -1.08505759423226   -0.05243905094665
C         0.54370837099562   -1.28217577218517   -0.02216370184789
C         1.07862510406259   -2.65204506213443   -0.03415472302807
N         0.33677321629670   -3.57124432791080   -0.65294426382713
C         0.77196917664984   -4.81600790106487   -0.70373427550850
C         1.96817392347789   -5.23451193892517   -0.14002045379106
C         2.73519206398112   -4.28994131364347    0.52573588000682
C         2.28869957082116   -2.98186362929349    0.58201080869361
H         2.45546931405754   -0.30237924242485   -0.00385142181717
H         1.51346244661549    1.96157162975542    0.03094633671976
H        -0.93097978719664    2.29115688593134    0.01024836440849
H        -2.43391111423553    0.33342523189856   -0.05517540003361
H        -1.48009082670679   -1.95022251646139   -0.08689848587349
H         0.12589025389118   -5.50984581216246   -1.22724162051001
H         2.28358303135485   -6.26331184188890   -0.21374774320422
H         3.66647420258781   -4.57032684539962    0.99690225798573
H         2.85363242870937   -2.23139497599043    1.11208660820948
21
 energy: -31.053029506846 gnorm: 0.000295281199 xtb: 6.4.1 (1a32961)
C         1.38345878370658   -0.16979648924131    0.00647905710660
C         0.85216995892628    1.10718830735401    0.01517652365833
C        -0.52071917100752    1.29235916117059   -0.00067483116659
C        -1.36289992902645    0.19212119428831   -0.03776584167350
C        -0.83540831735863   -1.08508662677451   -0.05341889101212
C         0.54448715770372   -1.28205703639295   -0.02245018397322
C         1.07950631202542   -2.65191808244048   -0.03416737415028
N         0.33702165661880   -3.57083910448130   -0.65268060454455
C         0.77178655202574   -4.81559726343988   -0.70341809431121
C         1.96741597489440   -5.23489540744352   -0.13955898711686
C         2.73557551959348   -4.29053449624184    0.52527136522312
C         2.28980642984150   -2.98217601812158    0.58083042750552
H         2.45557497818543   -0.30013521384706   -0.00201771152718
H         1.51240390441817    1.96215106547788    0.03246211102305
H        -0.93217726549186    2.29099113185708    0.01016331598383
H        -2.43378815542506    0.33207592381638   -0.05669918398176
H        -1.47953094824497   -1.94999760310035   -0.08822234245524
H         0.12418134721373   -5.50913300695904   -1.22546374183576
H         2.28150913588671   -6.26424471663419   -0.21204142664922
H         3.66686569487870   -4.57131053142226    0.99602177162897
H         2.85651038063582   -2.23203518742397    1.10957464226806
21
 energy: -31.053030539485 gnorm: 0.000331975399 xtb: 6.4.1 (1a32961)
C         1.38378812737773   -0.16875376526617    0.00769515282277
C         0.85152187835003    1.10788234652615    0.01625266267112
C        -0.52148039787241    1.29218516971103   -0.00084177364528
C        -1.36287420520293    0.19131966169261   -0.03880689797603
C        -0.83438939423547   -1.08545314717272   -0.05425680054668
C         0.54566228431486   -1.28157234091721   -0.02237610574223
C         1.08072910596505   -2.65138772859927   -0.03442940900181
N         0.33698693510460   -3.57013305050888   -0.65185643235956
C         0.77049720278125   -4.81535134154239   -0.70204091297978
C         1.96608902209776   -5.23540446456191   -0.13869360622417
C         2.73587164391485   -4.29114203983773    0.52446045202151
C         2.29144944911613   -2.98224365412398    0.57928216331011
H         2.45607958158557   -0.29799085812935    0.00028617803805
H         1.51110772203402    1.96334257748524    0.03440183317389
H        -0.93367820089164    2.29049633505100    0.00999643509594
H        -2.43385768533491    0.33041861095234   -0.05851370354016
H        -1.47789719642118   -1.95082828363325   -0.09006027873618
H         0.12219330535530   -5.50829132316984   -1.22402834973166
H         2.27910360421280   -6.26511457213418   -0.21058075608806
H         3.66724485484026   -4.57251290070079    0.99464653301898
H         2.85960236290836   -2.23233523112071    1.10686361641924
21
 energy: -31.053031369128 gnorm: 0.000167629354 xtb: 6.4.1 (1a32961)
C         1.38420921730184   -0.16766731674175    0.00947310511996
C         0.85088296640726    1.10860299395143    0.01760659997201
C        -0.52224163765579    1.29192536950141   -0.00106121285283
C        -1.36285621931458    0.19050011615531   -0.04012347378062
C        -0.83342902891248   -1.08590037492784   -0.05540939214513
C         0.54680250273979   -1.28099627553664   -0.02212684704743
C         1.08187932851359   -2.65078066079786   -0.03463725909776
N         0.33685761572764   -3.56940433078356   -0.65075834506138
C         0.76912124382101   -4.81502520226273   -0.70077898651189
C         1.96481274335455   -5.23583629368586   -0.13800330554880
C         2.73616880784511   -4.29168006463025    0.52340144465129
C         2.29324022981221   -2.98221040481538    0.57760681570052
H         2.45656121351907   -0.29615326237799    0.00318709774585
H         1.50983204885087    1.96457395721345    0.03683031188471
H        -0.93516574832677    2.28990366355272    0.00951392825252
H        -2.43395282577668    0.32879171445086   -0.06083534036360
H        -1.47602455622820   -1.95189902692100   -0.09206849246775
H         0.11968743563813   -5.50769539626762   -1.22173625580671
H         2.27659024821864   -6.26594456401670   -0.20905810317651
H         3.66785387276377   -4.57355221992640    0.99269746081182
H         2.86292054170101   -2.23242242113362    1.10368024972174
