105
 energy: -151.582636891214 gnorm: 0.000547516503 xtb: 6.4.1 (1a32961)
N        -0.96510000000002   -2.11530000000006   -0.24090000000011
C        -2.24699999999999   -1.69840000000003   -0.36219999999989
C        -3.14039999999994   -2.36819999999988   -1.21199999999994
C        -2.70219999999998   -3.47559999999992   -1.93050000000008
C        -1.37780000000000   -3.89879999999993   -1.78759999999993
C        -0.54289999999998   -3.18669999999993   -0.93509999999990
H         0.49810000000001   -3.45630000000000   -0.78940000000001
H        -0.99570000000000   -4.76030000000000   -2.32770000000002
H        -4.16499999999996   -2.02890000000002   -1.31830000000002
C        -2.62129999999999   -0.50949999999996    0.44100000000002
N        -1.62600000000000    0.07329999999998    1.16020000000001
C        -1.89680000000002    1.15240000000000    1.91689999999999
C        -3.17230000000000    1.70330000000000    1.99649999999998
C        -4.20509999999999    1.11740000000002    1.26270000000002
C        -3.92609999999999    0.00250000000004    0.47819999999999
H        -4.71960000000003   -0.46420000000000   -0.09519999999997
H        -3.34630000000000    2.57509999999999    2.62070000000000
H        -1.04449999999999    1.57419999999999    2.43690000000000
Ir        0.42149999999999   -0.81649999999999    0.91330000000000
H         0.87260000000000   -2.23030000000000    1.54050000000000
B         0.50670000000001    0.41560000000002   -0.81539999999999
O         0.19500000000000   -0.04700000000001   -2.09150000000001
C         0.00650000000007    1.10039999999998   -2.95430000000002
C         0.49019999999993    0.74740000000034   -4.35779999999996
H         1.51609999999990    0.37379999999999   -4.33700000000000
H         0.44730000000000    1.62239999999994   -5.01669999999994
H        -0.14739999999993   -0.03389999999997   -4.78429999999999
C        -1.50120000000002    1.39560000000005   -2.96669999999998
H        -1.75370000000002    2.21460000000002   -3.64850000000002
H        -2.03200000000000    0.49449999999995   -3.28930000000000
H        -1.85170000000000    1.65209999999999   -1.96220000000000
C         0.84230000000006    2.20669999999996   -2.22040000000006
O         0.75199999999998    1.78260000000004   -0.83690000000004
C         2.32930000000002    2.18619999999992   -2.59900000000002
H         2.74129999999998    1.18499999999987   -2.45750000000001
H         2.48870000000002    2.51300000000001   -3.63180000000001
H         2.87200000000002    2.86269999999997   -1.93199999999996
C         0.28440000000006    3.62289999999990   -2.33659999999999
H        -0.72649999999996    3.69040000000000   -1.92909999999999
H         0.92129999999996    4.31480000000004   -1.77610000000000
H         0.26430000000001    3.94809999999996   -3.38320000000001
B         1.56300000000001    0.60959999999998    1.84839999999999
O         2.92780000000003    0.55230000000006    2.15020000000000
C         3.36330000000003    1.88659999999993    2.50259999999998
C         4.53140000000000    1.78590000000005    3.47739999999994
H         4.27910000000000    1.16089999999993    4.33690000000004
H         5.39389999999998    1.33790000000001    2.97339999999999
H         4.82390000000001    2.77869999999987    3.83820000000004
C         3.79700000000003    2.56849999999997    1.19670000000005
H         4.20020000000000    3.57090000000001    1.37680000000001
H         4.56739999999997    1.95560000000000    0.72109999999997
H         2.95239999999998    2.63260000000001    0.50540000000003
C         2.05039999999999    2.50089999999998    3.09319999999998
O         1.03749999999996    1.81619999999999    2.31909999999991
C         1.89099999999995    4.00450000000005    2.88650000000018
H         1.87290000000000    4.25440000000001    1.82410000000008
H         0.94940000000001    4.34260000000004    3.33170000000003
H         2.71079999999999    4.55150000000004    3.36630000000002
C         1.82470000000000    2.13199999999990    4.56520000000013
H         1.92610000000001    1.05330000000002    4.71320000000002
H         2.52610000000003    2.65280000000011    5.22540000000009
H         0.80630000000005    2.41579999999999    4.84899999999999
B         2.27820000000001   -1.33089999999997    0.17410000000000
O         2.89460000000000   -2.57740000000000    0.38450000000001
C         4.26930000000001   -2.48199999999999   -0.07210000000006
C         5.10899999999998   -2.05379999999993    1.14010000000004
H         4.76350000000001   -1.08740000000003    1.51750000000000
H         4.98050000000000   -2.79470000000001    1.93589999999999
H         6.17420000000001   -1.99290000000000    0.89300000000000
C         4.71949999999996   -3.84659999999996   -0.58469999999996
H         4.75280000000000   -4.56130000000001    0.24420000000004
H         5.72330000000001   -3.78370000000000   -1.02010000000000
H         4.03499999999999   -4.23600000000002   -1.34170000000006
C         4.16439999999999   -1.36220000000004   -1.16299999999998
O         3.08519999999998   -0.55030000000003   -0.65400000000001
C         5.40720000000000   -0.48870000000003   -1.31549999999998
H         6.27320000000001   -1.09009999999999   -1.61529999999999
H         5.23300000000000    0.26929999999999   -2.08589999999998
H         5.64270000000000    0.02650000000001   -0.38239999999995
C         3.71800000000003   -1.89830000000016   -2.53110000000000
H         2.82530000000000   -2.52159999999998   -2.42740000000001
H         3.46090000000000   -1.05250000000006   -3.17550000000006
H         4.50569999999999   -2.48290000000001   -3.01790000000001
H        -3.38500000000002   -4.00129999999996   -2.59309999999996
H        -5.21400000000000    1.52080000000000    1.29960000000001
C         0.23590000000001   -1.68139999999995    2.96029999999997
C        -0.98710487287333   -2.13917785263758    3.43999930703234
C         1.27869051209676   -1.67962722824565    3.88885683995443
N        -1.20237350883021   -2.56354210823272    4.68225678228447
H        -1.86371689313533   -2.20052343288197    2.80286623286518
C         1.07283508169625   -2.09891336776395    5.19188163691338
H         2.26908619044531   -1.37934370107904    3.57184791990854
C        -0.18833132516436   -2.57102213745897    5.56013823505755
H         1.89833449315858   -2.12124591924877    5.88957511944697
C        -0.44501527931856   -3.18688691694652    6.87291150935734
C         0.39381857285730   -2.97675919272407    7.97162295490913
C        -1.52986251824533   -4.05744973028167    7.02030001925230
C         0.16762287578008   -3.63909790738606    9.16936710634728
H         1.22473201051557   -2.28691218217671    7.90117527298354
C        -1.75342273602263   -4.71489136623599    8.22005418558767
H        -2.18292961259736   -4.21159301039016    6.17078855440475
C        -0.89947025668535   -4.51520234122765    9.29508138797279
H         0.83276023006174   -3.47089974455216   10.00722706010949
H        -2.59299460173997   -5.39193688781168    8.31378282793481
H        -1.06523868013262   -5.03856218710739   10.22815367539845
