      -----------------------------------------------------------      
     |                   =====================                   |     
     |                           x T B                           |     
     |                   =====================                   |     
     |                         S. Grimme                         |     
     |          Mulliken Center for Theoretical Chemistry        |     
     |                    University of Bonn                     |     
      -----------------------------------------------------------      

   * xtb version 6.4.1 (1a32961) compiled by 'knkr256@seskscpg007.prim.scp' on 2021-10-19

   xtb is free software: you can redistribute it and/or modify it under
   the terms of the GNU Lesser General Public License as published by
   the Free Software Foundation, either version 3 of the License, or
   (at your option) any later version.
   
   xtb is distributed in the hope that it will be useful,
   but WITHOUT ANY WARRANTY; without even the implied warranty of
   MERCHANTABILITY or FITNESS FOR A PARTICULAR PURPOSE.  See the
   GNU Lesser General Public License for more details.
   
   Cite this work as:
   * C. Bannwarth, E. Caldeweyher, S. Ehlert, A. Hansen, P. Pracht,
     J. Seibert, S. Spicher, S. Grimme, WIREs Comput. Mol. Sci., 2020, 11,
     e01493. DOI: 10.1002/wcms.1493
   
   for GFN2-xTB:
   * C. Bannwarth, S. Ehlert and S. Grimme., J. Chem. Theory Comput., 2019,
     15, 1652-1671. DOI: 10.1021/acs.jctc.8b01176
   for GFN1-xTB:
   * S. Grimme, C. Bannwarth, P. Shushkov, J. Chem. Theory Comput., 2017,
     13, 1989-2009. DOI: 10.1021/acs.jctc.7b00118
   for GFN0-xTB:
   * P. Pracht, E. Caldeweyher, S. Ehlert, S. Grimme, ChemRxiv, 2019, preprint.
     DOI: 10.26434/chemrxiv.8326202.v1
   for GFN-FF:
   * S. Spicher and S. Grimme, Angew. Chem. Int. Ed., 2020, 59, 15665-15673.
     DOI: 10.1002/anie.202004239
   
   for ALPB and GBSA implicit solvation:
   * S. Ehlert, M. Stahn, S. Spicher, S. Grimme, J. Chem. Theory Comput.,
     2021, 17, 4250-4261. DOI: 10.1021/acs.jctc.1c00471
   
   for DFT-D4:
   * E. Caldeweyher, C. Bannwarth and S. Grimme, J. Chem. Phys., 2017,
     147, 034112. DOI: 10.1063/1.4993215
   * E. Caldeweyher, S. Ehlert, A. Hansen, H. Neugebauer, S. Spicher,
     C. Bannwarth and S. Grimme, J. Chem. Phys., 2019, 150, 154122.
     DOI: 10.1063/1.5090222
   * E. Caldeweyher, J.-M. Mewes, S. Ehlert and S. Grimme, Phys. Chem. Chem. Phys.
     2020, 22, 8499-8512. DOI: 10.1039/D0CP00502A
   
   for sTDA-xTB:
   * S. Grimme and C. Bannwarth, J. Chem. Phys., 2016, 145, 054103.
     DOI: 10.1063/1.4959605
   
   in the mass-spec context:
   * V. Asgeirsson, C. Bauer and S. Grimme, Chem. Sci., 2017, 8, 4879.
     DOI: 10.1039/c7sc00601b
   * J. Koopman and S. Grimme, ACS Omega 2019, 4, 12, 15120-15133.
     DOI: 10.1021/acsomega.9b02011
   
   for metadynamics refer to:
   * S. Grimme, J. Chem. Theory Comput., 2019, 155, 2847-2862
     DOI: 10.1021/acs.jctc.9b00143
   
   for SPH calculations refer to:
   * S. Spicher and S. Grimme, J. Chem. Theory Comput., 2021, 17, 1701-1714
     DOI: 10.1021/acs.jctc.0c01306
   
   with help from (in alphabetical order)
   P. Atkinson, C. Bannwarth, F. Bohle, G. Brandenburg, E. Caldeweyher
   M. Checinski, S. Dohm, S. Ehlert, S. Ehrlich, I. Gerasimov, J. Koopman
   C. Lavigne, S. Lehtola, F. März, M. Müller, F. Musil, H. Neugebauer
   J. Pisarek, C. Plett, P. Pracht, J. Seibert, P. Shushkov, S. Spicher
   M. Stahn, M. Steiner, T. Strunk, J. Stückrath, T. Rose, and J. Unsleber
   
 * started run on 2022/01/14 at 13:39:23.298     

           -------------------------------------------------
          |                Calculation Setup                |
           -------------------------------------------------

          program call               : xtb xtbopt.xyz --sp --alpb thf -P 6
          hostname                   : seskscpg007.prim.scp
          coordinate file            : xtbopt.xyz
          omp threads                :                     6
          number of atoms            :                   105
          number of electrons        :                   278
          charge                     :                     0
          spin                       :                   0.0
          first test random number   :      0.40759406548249

   ID    Z sym.   atoms
    1    7 N      1, 11, 89
    2    6 C      2-6, 10, 12-15, 23, 24, 28, 32, 34, 38, 44, 45, 49, 53, 55,
                  59, 65, 66, 70, 74, 76, 80, 86-88, 91, 93, 95-98, 100, 102
    3    1 H      7-9, 16-18, 20, 25-27, 29-31, 35-37, 39-41, 46-48, 50-52,
                  56-58, 60-62, 67-69, 71-73, 77-79, 81-85, 90, 92, 94, 99,
                  101, 103-105
    4   77 Ir     19
    5    5 B      21, 42, 63
    6    8 O      22, 33, 43, 54, 64, 75

molecular fragmentation (1/2 indicates fragments):
111111111111111111111111111111111111111111111111111111111111111111111111
111111111111122222222222222222222
# atoms in fragment 1/2:    85    20
 fragment masses (1/2) :      730.32      154.19
CMA distance (Bohr)    :  12.566
constraining FC (au)   :  0.0500

           -------------------------------------------------
          |                 G F N 2 - x T B                 |
           -------------------------------------------------

        Reference                      10.1021/acs.jctc.8b01176
      * Hamiltonian:
        H0-scaling (s, p, d)           1.850000    2.230000    2.230000
        zeta-weighting                 0.500000
      * Dispersion:
        s8                             2.700000
        a1                             0.520000
        a2                             5.000000
        s9                             5.000000
      * Repulsion:
        kExp                           1.500000    1.000000
        rExp                           1.000000
      * Coulomb:
        alpha                          2.000000
        third order                    shell-resolved
        anisotropic                    true
        a3                             3.000000
        a5                             4.000000
        cn-shift                       1.200000
        cn-exp                         4.000000
        max-rad                        5.000000

      * Solvation model:               ALPB
        Solvent                        thf
        Parameter file                 internal GFN2-xTB/ALPB
        Dielectric constant                7.6000E+00
        Reference state                gsolv [1 M gas/solution]
        Free energy shift                  5.3248E-03 Eh       3.3414E+00 kcal/mol
        Temperature                        2.9815E+02 K
        Density                            8.8300E-01 kg/L
        Solvent mass                       7.2106E+01 g/mol
        Interaction kernel             P16
        Born radius scaling (c1)           1.7311E+00
        Born radii integrator          GBOBC
        Born offset                        0.0000E+00 a0       0.0000E+00 AA
        H-bond correction              true
        Ion screening                  false
        Surface tension                    1.0000E-05 Eh       1.5569E+01 dyn/cm
        Grid points                               230 per atom
q/qsh data taken from xtbrestart
CAMM data taken from xtbrestart

          ...................................................
          :                      SETUP                      :
          :.................................................:
          :  # basis functions                 267          :
          :  # atomic orbitals                 266          :
          :  # shells                          158          :
          :  # electrons                       278          :
          :  max. iterations                   250          :
          :  Hamiltonian                  GFN2-xTB          :
          :  restarted?                       true          :
          :  GBSA solvation                   true          :
          :  PC potential                    false          :
          :  electronic temp.          300.0000000     K    :
          :  accuracy                    1.0000000          :
          :  -> integral cutoff          0.2500000E+02      :
          :  -> integral neglect         0.1000000E-07      :
          :  -> SCF convergence          0.1000000E-05 Eh   :
          :  -> wf. convergence          0.1000000E-03 e    :
          :  Broyden damping             0.4000000          :
          ...................................................

 iter      E             dE          RMSdq      gap      omega  full diag
   1   -153.6472712 -0.153647E+03  0.324E-05    0.92       0.0  T
   2   -153.6472712  0.954969E-11  0.327E-05    0.92     298.6  T
   3   -153.6472712 -0.222542E-10  0.211E-05    0.92     462.4  T

   *** convergence criteria satisfied after 3 iterations ***

         #    Occupation            Energy/Eh            Energy/eV
      -------------------------------------------------------------
         1        2.0000           -0.6760981             -18.3976
       ...           ...                  ...                  ...
       133        2.0000           -0.3593009              -9.7771
       134        2.0000           -0.3465901              -9.4312
       135        2.0000           -0.3347934              -9.1102
       136        2.0000           -0.3247545              -8.8370
       137        2.0000           -0.3214001              -8.7457
       138        2.0000           -0.3140306              -8.5452
       139        2.0000           -0.3108538              -8.4588 (HOMO)
       140                         -0.2772014              -7.5430 (LUMO)
       141                         -0.2501517              -6.8070
       142                         -0.2472599              -6.7283
       143                         -0.2455953              -6.6830
       144                         -0.2253129              -6.1311
       ...                                ...                  ...
       266                          3.6945169             100.5329
      -------------------------------------------------------------
                  HL-Gap            0.0336523 Eh            0.9157 eV
             Fermi-level           -0.2940111 Eh           -8.0004 eV

 SCC (total)                   0 d,  0 h,  0 min,  0.095 sec
 SCC setup                      ...        0 min,  0.003 sec (  2.737%)
 Dispersion                     ...        0 min,  0.004 sec (  3.709%)
 classical contributions        ...        0 min,  0.000 sec (  0.176%)
 integral evaluation            ...        0 min,  0.012 sec ( 12.287%)
 iterations                     ...        0 min,  0.038 sec ( 40.329%)
 molecular gradient             ...        0 min,  0.038 sec ( 39.877%)
 printout                       ...        0 min,  0.001 sec (  0.807%)

         :::::::::::::::::::::::::::::::::::::::::::::::::::::
         ::                     SUMMARY                     ::
         :::::::::::::::::::::::::::::::::::::::::::::::::::::
         :: total energy            -151.596486412294 Eh    ::
         :: total w/o Gsasa/hb      -151.551717429964 Eh    ::
         :: gradient norm              0.034417172166 Eh/a0 ::
         :: HOMO-LUMO gap              0.915726957881 eV    ::
         ::.................................................::
         :: SCC energy              -153.647271233328 Eh    ::
         :: -> isotropic ES            0.243823720045 Eh    ::
         :: -> anisotropic ES          0.014355101017 Eh    ::
         :: -> anisotropic XC          0.059914845899 Eh    ::
         :: -> dispersion             -0.144653398685 Eh    ::
         :: -> Gsolv                  -0.055069008078 Eh    ::
         ::    -> Gelec               -0.010300025748 Eh    ::
         ::    -> Gsasa               -0.047517878563 Eh    ::
         ::    -> Ghb                 -0.002575919212 Eh    ::
         ::    -> Gshift               0.005324815444 Eh    ::
         :: repulsion energy           2.043333202654 Eh    ::
         :: add. restraining           0.000000000000 Eh    ::
         :: total charge               0.000000001436 e     ::
         :::::::::::::::::::::::::::::::::::::::::::::::::::::

           -------------------------------------------------
          |                Property Printout                |
           -------------------------------------------------

    * Orbital Energies and Occupations

         #    Occupation            Energy/Eh            Energy/eV
      -------------------------------------------------------------
         1        2.0000           -0.6760981             -18.3976
       ...           ...                  ...                  ...
       127        2.0000           -0.3963627             -10.7856
       128        2.0000           -0.3905070             -10.6262
       129        2.0000           -0.3878505             -10.5539
       130        2.0000           -0.3851703             -10.4810
       131        2.0000           -0.3834539             -10.4343
       132        2.0000           -0.3790494             -10.3145
       133        2.0000           -0.3593009              -9.7771
       134        2.0000           -0.3465901              -9.4312
       135        2.0000           -0.3347934              -9.1102
       136        2.0000           -0.3247545              -8.8370
       137        2.0000           -0.3214001              -8.7457
       138        2.0000           -0.3140306              -8.5452
       139        2.0000           -0.3108538              -8.4588 (HOMO)
       140                         -0.2772014              -7.5430 (LUMO)
       141                         -0.2501517              -6.8070
       142                         -0.2472599              -6.7283
       143                         -0.2455953              -6.6830
       144                         -0.2253129              -6.1311
       145                         -0.2143163              -5.8318
       146                         -0.2062722              -5.6130
       147                         -0.2007526              -5.4628
       148                         -0.1803227              -4.9068
       149                         -0.1521782              -4.1410
       150                         -0.1278474              -3.4789
       ...                                ...                  ...
       266                          3.6945169             100.5329
      -------------------------------------------------------------
                  HL-Gap            0.0336523 Eh            0.9157 eV
             Fermi-level           -0.2940111 Eh           -8.0004 eV

     #   Z          covCN         q      C6AA      α(0)
     1   7 N        2.547    -0.122    23.675     7.226
     2   6 C        2.956     0.079    26.242     8.402
     3   6 C        2.918    -0.041    29.030     8.835
     4   6 C        2.924    -0.021    28.541     8.761
     5   6 C        2.915    -0.043    29.057     8.839
     6   6 C        2.893     0.049    26.898     8.503
     7   1 H        0.926     0.053     2.287     2.365
     8   1 H        0.926     0.057     2.230     2.335
     9   1 H        0.926     0.048     2.345     2.395
    10   6 C        2.955     0.075    26.333     8.417
    11   7 N        2.565    -0.125    23.739     7.236
    12   6 C        2.891     0.043    27.031     8.524
    13   6 C        2.915    -0.044    29.081     8.843
    14   6 C        2.923    -0.023    28.574     8.766
    15   6 C        2.919    -0.045    29.109     8.847
    16   1 H        0.926     0.049     2.334     2.389
    17   1 H        0.926     0.053     2.280     2.361
    18   1 H        0.926     0.074     2.040     2.234
    19  77 Ir       5.948    -0.157   388.351    36.442
    20   1 H        0.977     0.083     1.947     2.181
    21   5 B        2.627     0.402    16.043     6.769
    22   8 O        1.638    -0.410    21.058     6.194
    23   6 C        3.836     0.131    18.441     6.110
    24   6 C        3.755    -0.122    22.886     6.821
    25   1 H        0.925     0.054     2.273     2.358
    26   1 H        0.925     0.045     2.380     2.412
    27   1 H        0.925     0.051     2.310     2.377
    28   6 C        3.754    -0.109    22.638     6.784
    29   1 H        0.925     0.048     2.349     2.397
    30   1 H        0.925     0.041     2.434     2.440
    31   1 H        0.925     0.028     2.619     2.531
    32   6 C        3.840     0.131    18.435     6.108
    33   8 O        1.637    -0.403    20.912     6.173
    34   6 C        3.755    -0.120    22.848     6.816
    35   1 H        0.925     0.048     2.351     2.398
    36   1 H        0.925     0.047     2.356     2.400
    37   1 H        0.925     0.050     2.318     2.381
    38   6 C        3.754    -0.120    22.853     6.817
    39   1 H        0.925     0.047     2.353     2.399
    40   1 H        0.925     0.053     2.281     2.362
    41   1 H        0.925     0.045     2.377     2.411
    42   5 B        2.624     0.405    16.028     6.770
    43   8 O        1.637    -0.382    20.521     6.115
    44   6 C        3.836     0.129    18.471     6.114
    45   6 C        3.755    -0.126    22.975     6.835
    46   1 H        0.925     0.054     2.267     2.355
    47   1 H        0.925     0.057     2.235     2.338
    48   1 H        0.925     0.050     2.318     2.381
    49   6 C        3.755    -0.122    22.902     6.824
    50   1 H        0.925     0.049     2.330     2.387
    51   1 H        0.925     0.046     2.373     2.409
    52   1 H        0.925     0.054     2.274     2.358
    53   6 C        3.832     0.128    18.483     6.117
    54   8 O        1.637    -0.384    20.559     6.120
    55   6 C        3.755    -0.124    22.940     6.829
    56   1 H        0.925     0.054     2.268     2.355
    57   1 H        0.925     0.054     2.265     2.354
    58   1 H        0.925     0.049     2.333     2.388
    59   6 C        3.755    -0.122    22.894     6.823
    60   1 H        0.925     0.042     2.423     2.434
    61   1 H        0.925     0.053     2.280     2.361
    62   1 H        0.925     0.050     2.324     2.384
    63   5 B        2.624     0.400    16.087     6.782
    64   8 O        1.637    -0.378    20.434     6.102
    65   6 C        3.831     0.125    18.528     6.124
    66   6 C        3.755    -0.130    23.053     6.846
    67   1 H        0.925     0.059     2.212     2.326
    68   1 H        0.925     0.054     2.277     2.360
    69   1 H        0.925     0.050     2.318     2.381
    70   6 C        3.755    -0.129    23.034     6.843
    71   1 H        0.925     0.060     2.201     2.320
    72   1 H        0.925     0.051     2.307     2.375
    73   1 H        0.925     0.052     2.297     2.370
    74   6 C        3.828     0.126    18.510     6.122
    75   8 O        1.637    -0.381    20.492     6.110
    76   6 C        3.755    -0.124    22.937     6.829
    77   1 H        0.925     0.051     2.309     2.376
    78   1 H        0.925     0.053     2.279     2.361
    79   1 H        0.925     0.054     2.266     2.354
    80   6 C        3.755    -0.123    22.916     6.826
    81   1 H        0.925     0.040     2.446     2.446
    82   1 H        0.925     0.052     2.299     2.371
    83   1 H        0.925     0.055     2.264     2.353
    84   1 H        0.926     0.055     2.261     2.352
    85   1 H        0.926     0.053     2.282     2.362
    86   6 C        2.824    -0.037    28.912     8.811
    87   6 C        2.903     0.060    26.663     8.467
    88   6 C        2.931    -0.022    28.545     8.762
    89   7 N        1.843    -0.264    27.703     7.800
    90   1 H        0.925     0.019     2.752     2.594
    91   6 C        2.913    -0.049    29.227     8.865
    92   1 H        0.926     0.042     2.422     2.434
    93   6 C        2.955     0.080    26.223     8.399
    94   1 H        0.926     0.036     2.506     2.475
    95   6 C        2.978     0.003    27.957     8.673
    96   6 C        2.923    -0.038    28.949     8.823
    97   6 C        2.926    -0.033    28.814     8.803
    98   6 C        2.918    -0.035    28.866     8.810
    99   1 H        0.926     0.034     2.532     2.488
   100   6 C        2.918    -0.033    28.831     8.805
   101   1 H        0.926     0.049     2.334     2.389
   102   6 C        2.919    -0.035    28.878     8.812
   103   1 H        0.926     0.036     2.509     2.477
   104   1 H        0.926     0.036     2.503     2.474
   105   1 H        0.926     0.036     2.509     2.477

 Mol. C6AA /au·bohr⁶  :     121591.828972
 Mol. C8AA /au·bohr⁸  :    3235188.059603
 Mol. α(0) /au        :        543.739455


Wiberg/Mayer (AO) data.
largest (>0.10) Wiberg bond orders for each atom

 ---------------------------------------------------------------------------
     #   Z sym  total        # sym  WBO       # sym  WBO       # sym  WBO
 ---------------------------------------------------------------------------
     1   7 N    3.399 --     6 C    1.388     2 C    1.313    19 Ir   0.439
     2   6 C    3.978 --     3 C    1.351     1 N    1.313    10 C    1.088
     3   6 C    3.988 --     4 C    1.481     2 C    1.351     9 H    0.962
                             6 C    0.106
     4   6 C    3.983 --     3 C    1.481     5 C    1.385    84 H    0.969
     5   6 C    3.979 --     6 C    1.459     4 C    1.385     8 H    0.968
     6   6 C    3.977 --     5 C    1.459     1 N    1.388     7 H    0.957
                             3 C    0.106
     7   1 H    0.997 --     6 C    0.957
     8   1 H    0.996 --     5 C    0.968
     9   1 H    0.997 --     3 C    0.962
    10   6 C    3.978 --    15 C    1.355    11 N    1.307     2 C    1.088
    11   7 N    3.414 --    12 C    1.387    10 C    1.307    19 Ir   0.437
    12   6 C    3.973 --    13 C    1.456    11 N    1.387    18 H    0.948
                            15 C    0.105
    13   6 C    3.981 --    12 C    1.456    14 C    1.387    17 H    0.969
    14   6 C    3.982 --    15 C    1.477    13 C    1.387    85 H    0.969
    15   6 C    3.988 --    14 C    1.477    10 C    1.355    16 H    0.962
                            12 C    0.105
    16   1 H    0.997 --    15 C    0.962
    17   1 H    0.997 --    13 C    0.969
    18   1 H    0.994 --    12 C    0.948
    19  77 Ir   5.185 --    63 B    0.868    42 B    0.856    21 B    0.728
                            86 C    0.599    20 H    0.537     1 N    0.439
                            11 N    0.437
    20   1 H    0.989 --    19 Ir   0.537    86 C    0.342
    21   5 B    3.269 --    33 O    1.112    22 O    1.089    19 Ir   0.728
    22   8 O    2.189 --    21 B    1.089    23 C    0.943
    23   6 C    3.943 --    24 C    0.997    28 C    0.990    22 O    0.943
                            32 C    0.941
    24   6 C    3.994 --    23 C    0.997    26 H    0.984    27 H    0.983
                            25 H    0.983
    25   1 H    0.997 --    24 C    0.983
    26   1 H    0.997 --    24 C    0.984
    27   1 H    0.997 --    24 C    0.983
    28   6 C    3.997 --    23 C    0.990    31 H    0.985    30 H    0.984
                            29 H    0.984
    29   1 H    0.997 --    28 C    0.984
    30   1 H    0.998 --    28 C    0.984
    31   1 H    0.999 --    28 C    0.985
    32   6 C    3.940 --    38 C    0.997    34 C    0.991    23 C    0.941
                            33 O    0.939
    33   8 O    2.203 --    21 B    1.112    32 C    0.939
    34   6 C    3.994 --    32 C    0.991    36 H    0.984    35 H    0.983
                            37 H    0.982
    35   1 H    0.998 --    34 C    0.983
    36   1 H    0.997 --    34 C    0.984
    37   1 H    0.997 --    34 C    0.982
    38   6 C    3.994 --    32 C    0.997    41 H    0.984    39 H    0.983
                            40 H    0.983
    39   1 H    0.998 --    38 C    0.983
    40   1 H    0.997 --    38 C    0.983
    41   1 H    0.997 --    38 C    0.984
    42   5 B    3.335 --    43 O    1.120    54 O    1.106    19 Ir   0.856
    43   8 O    2.227 --    42 B    1.120    44 C    0.935
    44   6 C    3.936 --    45 C    0.997    49 C    0.991    53 C    0.939
                            43 O    0.935
    45   6 C    3.993 --    44 C    0.997    48 H    0.983    46 H    0.982
                            47 H    0.982
    46   1 H    0.997 --    45 C    0.982
    47   1 H    0.996 --    45 C    0.982
    48   1 H    0.996 --    45 C    0.983
    49   6 C    3.994 --    44 C    0.991    50 H    0.983    51 H    0.983
                            52 H    0.979
    50   1 H    0.997 --    49 C    0.983
    51   1 H    0.998 --    49 C    0.983
    52   1 H    0.997 --    49 C    0.979
    53   6 C    3.937 --    55 C    0.996    59 C    0.991    44 C    0.939
                            54 O    0.934
    54   8 O    2.225 --    42 B    1.106    53 C    0.934
    55   6 C    3.993 --    53 C    0.996    58 H    0.983    57 H    0.983
                            56 H    0.982
    56   1 H    0.997 --    55 C    0.982
    57   1 H    0.997 --    55 C    0.983
    58   1 H    0.996 --    55 C    0.983
    59   6 C    3.994 --    53 C    0.991    62 H    0.983    61 H    0.983
                            60 H    0.982
    60   1 H    0.998 --    59 C    0.982
    61   1 H    0.996 --    59 C    0.983
    62   1 H    0.997 --    59 C    0.983
    63   5 B    3.361 --    75 O    1.117    64 O    1.114    19 Ir   0.868
    64   8 O    2.229 --    63 B    1.114    65 C    0.938
    65   6 C    3.937 --    70 C    0.996    66 C    0.991    64 O    0.938
                            74 C    0.937
    66   6 C    3.992 --    65 C    0.991    69 H    0.983    68 H    0.983
                            67 H    0.978
    67   1 H    0.997 --    66 C    0.978
    68   1 H    0.997 --    66 C    0.983
    69   1 H    0.996 --    66 C    0.983
    70   6 C    3.992 --    65 C    0.996    72 H    0.983    73 H    0.982
                            71 H    0.982
    71   1 H    0.996 --    70 C    0.982
    72   1 H    0.996 --    70 C    0.983
    73   1 H    0.997 --    70 C    0.982
    74   6 C    3.935 --    76 C    0.996    80 C    0.991    65 C    0.937
                            75 O    0.936
    75   8 O    2.233 --    63 B    1.117    74 C    0.936
    76   6 C    3.993 --    74 C    0.996    77 H    0.983    78 H    0.982
                            79 H    0.982
    77   1 H    0.996 --    76 C    0.983
    78   1 H    0.997 --    76 C    0.982
    79   1 H    0.997 --    76 C    0.982
    80   6 C    3.995 --    74 C    0.991    81 H    0.984    83 H    0.983
                            82 H    0.983
    81   1 H    0.998 --    80 C    0.984
    82   1 H    0.997 --    80 C    0.983
    83   1 H    0.996 --    80 C    0.983
    84   1 H    0.996 --     4 C    0.969
    85   1 H    0.996 --    14 C    0.969
    86   6 C    3.937 --    88 C    1.367    87 C    1.362    19 Ir   0.599
                            20 H    0.342
    87   6 C    3.981 --    89 N    1.449    86 C    1.362    90 H    0.958
    88   6 C    3.988 --    91 C    1.468    86 C    1.367    92 H    0.960
    89   7 N    3.059 --    87 C    1.449    93 C    1.371
    90   1 H    0.999 --    87 C    0.958
    91   6 C    3.987 --    88 C    1.468    93 C    1.357    94 H    0.965
    92   1 H    0.997 --    88 C    0.960
    93   6 C    3.975 --    89 N    1.371    91 C    1.357    95 C    1.056
    94   1 H    0.997 --    91 C    0.965
    95   6 C    3.986 --    96 C    1.385    97 C    1.378    93 C    1.056
                           102 C    0.103
    96   6 C    3.987 --    98 C    1.453    95 C    1.385    99 H    0.967
                           100 C    0.106
    97   6 C    3.986 --   100 C    1.459    95 C    1.378   101 H    0.967
                            98 C    0.107
    98   6 C    3.991 --    96 C    1.453   102 C    1.434   103 H    0.971
                            97 C    0.107
    99   1 H    0.999 --    96 C    0.967
   100   6 C    3.991 --    97 C    1.459   102 C    1.430   104 H    0.970
                            96 C    0.106
   101   1 H    0.998 --    97 C    0.967
   102   6 C    3.981 --    98 C    1.434   100 C    1.430   105 H    0.971
                            95 C    0.103
   103   1 H    0.998 --    98 C    0.971
   104   1 H    0.998 --   100 C    0.970
   105   1 H    0.998 --   102 C    0.971
 ---------------------------------------------------------------------------

Topologies differ in total number of bonds
Writing topology from bond orders to xtbtopo.mol

molecular dipole:
                 x           y           z       tot (Debye)
 q only:        0.368       0.679      -1.242
   full:       -0.482       1.040      -1.804       5.434
molecular quadrupole (traceless):
                xx          xy          yy          xz          yz          zz
 q only:       13.716       0.052      -3.758       7.270      15.980      -9.957
  q+dip:       16.977       1.845      -7.631      12.290      22.747      -9.346
   full:       14.017       0.380      -3.015      10.455      20.052     -11.002


           -------------------------------------------------
          | TOTAL ENERGY             -151.596486412294 Eh   |
          | GRADIENT NORM               0.034417172166 Eh/α |
          | HOMO-LUMO GAP               0.915726957881 eV   |
           -------------------------------------------------

------------------------------------------------------------------------
 * finished run on 2022/01/14 at 13:39:23.425     
------------------------------------------------------------------------
 total:
 * wall-time:     0 d,  0 h,  0 min,  0.126 sec
 *  cpu-time:     0 d,  0 h,  0 min,  0.734 sec
 * ratio c/w:     5.818 speedup
 SCF:
 * wall-time:     0 d,  0 h,  0 min,  0.097 sec
 *  cpu-time:     0 d,  0 h,  0 min,  0.576 sec
 * ratio c/w:     5.960 speedup

