13
 energy: -17.196860303200 gnorm: 0.000117808469 xtb: 6.4.1 (1a32961)
C        -0.07970654425512   -1.11905165929974   -0.01045345556049
C        -1.39600073278606   -0.74051769680194   -0.00373847867996
C        -1.41811299109612    0.66692724123790   -0.00287064084895
C        -0.11391687956676    1.08626997514602   -0.00975254250540
N         0.69411862055062   -0.00336107269931   -0.01369433878889
C         2.13112913299612    0.00871150902854   -0.02930731943187
H         0.35847728717490   -2.09819557604995   -0.01319290857303
H        -2.24747462872016   -1.39376782654578    0.00103281370179
H        -2.28926843902395    1.29352909670353    0.00277516931954
H         0.29081470827736    2.07991726342650   -0.01125702088496
H         2.48263328049007    1.03750271556551    0.01678968763073
H         2.50870120405072   -0.45416923343748   -0.94410387579111
H         2.52639598190838   -0.54041473627379    0.82787291041261
