101
 energy: -147.416697463393 gnorm: 0.078181627246 xtb: 6.4.1 (1a32961)
N        -0.96510000000000   -2.11530000000000   -0.24090000000000
C        -2.24700000000000   -1.69840000000000   -0.36220000000000
C        -3.14040000000000   -2.36820000000000   -1.21200000000000
C        -2.70220000000000   -3.47560000000000   -1.93050000000000
C        -1.37780000000000   -3.89880000000000   -1.78760000000000
C        -0.54290000000000   -3.18670000000000   -0.93510000000000
H         0.49810000000000   -3.45630000000000   -0.78940000000000
H        -0.99570000000000   -4.76030000000000   -2.32770000000000
H        -4.16500000000000   -2.02890000000000   -1.31830000000000
C        -2.62130000000000   -0.50950000000000    0.44100000000000
N        -1.62600000000000    0.07330000000000    1.16020000000000
C        -1.89680000000000    1.15240000000000    1.91690000000000
C        -3.17230000000000    1.70330000000000    1.99650000000000
C        -4.20510000000000    1.11740000000000    1.26270000000000
C        -3.92610000000000    0.00250000000000    0.47820000000000
H        -4.71960000000000   -0.46420000000000   -0.09520000000000
H        -3.34630000000000    2.57510000000000    2.62070000000000
H        -1.04450000000000    1.57420000000000    2.43690000000000
Ir        0.42150000000000   -0.81650000000000    0.91330000000000
H         0.87260000000000   -2.23030000000000    1.54050000000000
B         0.50670000000000    0.41560000000000   -0.81540000000000
O         0.19500000000000   -0.04700000000000   -2.09150000000000
C         0.00650000000000    1.10040000000000   -2.95430000000000
C         0.49020000000000    0.74740000000000   -4.35780000000000
H         1.51610000000000    0.37380000000000   -4.33700000000000
H         0.44730000000000    1.62240000000000   -5.01670000000000
H        -0.14740000000000   -0.03390000000000   -4.78430000000000
C        -1.50120000000000    1.39560000000000   -2.96670000000000
H        -1.75370000000000    2.21460000000000   -3.64850000000000
H        -2.03200000000000    0.49450000000000   -3.28930000000000
H        -1.85170000000000    1.65210000000000   -1.96220000000000
C         0.84230000000000    2.20670000000000   -2.22040000000000
O         0.75200000000000    1.78260000000000   -0.83690000000000
C         2.32930000000000    2.18620000000000   -2.59900000000000
H         2.74130000000000    1.18500000000000   -2.45750000000000
H         2.48870000000000    2.51300000000000   -3.63180000000000
H         2.87200000000000    2.86270000000000   -1.93200000000000
C         0.28440000000000    3.62290000000000   -2.33660000000000
H        -0.72650000000000    3.69040000000000   -1.92910000000000
H         0.92130000000000    4.31480000000000   -1.77610000000000
H         0.26430000000000    3.94810000000000   -3.38320000000000
B         1.56300000000000    0.60960000000000    1.84840000000000
O         2.92780000000000    0.55230000000000    2.15020000000000
C         3.36330000000000    1.88660000000000    2.50260000000000
C         4.53140000000000    1.78590000000000    3.47740000000000
H         4.27910000000000    1.16090000000000    4.33690000000000
H         5.39390000000000    1.33790000000000    2.97340000000000
H         4.82390000000000    2.77870000000000    3.83820000000000
C         3.79700000000000    2.56850000000000    1.19670000000000
H         4.20020000000000    3.57090000000000    1.37680000000000
H         4.56740000000000    1.95560000000000    0.72110000000000
H         2.95240000000000    2.63260000000000    0.50540000000000
C         2.05040000000000    2.50090000000000    3.09320000000000
O         1.03750000000000    1.81620000000000    2.31910000000000
C         1.89100000000000    4.00450000000000    2.88650000000000
H         1.87290000000000    4.25440000000000    1.82410000000000
H         0.94940000000000    4.34260000000000    3.33170000000000
H         2.71080000000000    4.55150000000000    3.36630000000000
C         1.82470000000000    2.13200000000000    4.56520000000000
H         1.92610000000000    1.05330000000000    4.71320000000000
H         2.52610000000000    2.65280000000000    5.22540000000000
H         0.80630000000000    2.41580000000000    4.84900000000000
B         2.27820000000000   -1.33090000000000    0.17410000000000
O         2.89460000000000   -2.57740000000000    0.38450000000000
C         4.26930000000000   -2.48200000000000   -0.07210000000000
C         5.10900000000000   -2.05380000000000    1.14010000000000
H         4.76350000000000   -1.08740000000000    1.51750000000000
H         4.98050000000000   -2.79470000000000    1.93590000000000
H         6.17420000000000   -1.99290000000000    0.89300000000000
C         4.71950000000000   -3.84660000000000   -0.58470000000000
H         4.75280000000000   -4.56130000000000    0.24420000000000
H         5.72330000000000   -3.78370000000000   -1.02010000000000
H         4.03500000000000   -4.23600000000000   -1.34170000000000
C         4.16440000000000   -1.36220000000000   -1.16300000000000
O         3.08520000000000   -0.55030000000000   -0.65400000000000
C         5.40720000000000   -0.48870000000000   -1.31550000000000
H         6.27320000000000   -1.09010000000000   -1.61530000000000
H         5.23300000000000    0.26930000000000   -2.08590000000000
H         5.64270000000000    0.02650000000000   -0.38240000000000
C         3.71800000000000   -1.89830000000000   -2.53110000000000
H         2.82530000000000   -2.52160000000000   -2.42740000000000
H         3.46090000000000   -1.05250000000000   -3.17550000000000
H         4.50570000000000   -2.48290000000000   -3.01790000000000
H        -3.38500000000000   -4.00130000000000   -2.59310000000000
H        -5.21400000000000    1.52080000000000    1.29960000000000
C         0.23590000000000   -1.68140000000000    2.96030000000000
C        -0.98514113596278   -2.18654340938269    3.39483547448517
C         1.29733691942238   -1.62714496156162    3.87527786059257
C        -1.14463885938272   -2.58391344797468    4.72718814546581
H        -1.82528360908757   -2.31715222405482    2.72610801855527
C         1.16657069744792   -1.99707247791269    5.20314946183138
H         2.26897246869331   -1.30897217428861    3.52030162680930
C        -0.06695188688520   -2.48302385487083    5.62241150309333
N        -2.27361748414287   -3.15103434009789    5.27153175091093
H         2.00286183375083   -1.95446246960709    5.88802989179660
S        -0.52611075552640   -3.12079048404237    7.16655718675148
C        -2.09722616249694   -3.48391336645400    6.50377052061406
C        -3.11157602354737   -4.16266460393958    7.34792779105774
H        -3.22852255338930   -3.63579821298491    8.29580742127427
H        -2.78280230132862   -5.18019497196858    7.56701254643706
H        -4.06287517989587   -4.19788885153808    6.81906090229234
101
 energy: -147.423374437722 gnorm: 0.047488668093 xtb: 6.4.1 (1a32961)
N        -0.96174206829869   -2.10075484005244   -0.25051763900513
C        -2.23968898938418   -1.69069897539436   -0.36331889117703
C        -3.13433921756431   -2.36175954602330   -1.20581213824288
C        -2.70412121799234   -3.46330613026293   -1.92162223190609
C        -1.38439003211437   -3.88237845553084   -1.78231044239353
C        -0.55420286440907   -3.16811790665630   -0.94023497462863
H         0.47955826608564   -3.44805737682918   -0.79082640278968
H        -1.00808236175938   -4.74244332188249   -2.31757336934071
H        -4.15487062737854   -2.02640216943950   -1.30956335046063
C        -2.61132022412815   -0.51426262984515    0.43763883296814
N        -1.61926959418641    0.06507417774832    1.14977292893852
C        -1.89755146383752    1.13686239055211    1.89566426835507
C        -3.16425987733279    1.68699552429008    1.98274806976679
C        -4.19543000037092    1.10310685055754    1.25600825022964
C        -3.91402720429410   -0.00376679408259    0.47627226632191
H        -4.70530624739494   -0.46679649646285   -0.09304789004082
H        -3.33903040608933    2.55083214496512    2.60872307372586
H        -1.05421907318959    1.55608463556989    2.42342514290981
Ir        0.42150000000000   -0.81650000000000    0.91330000000000
H         0.87260000000000   -2.23030000000000    1.54050000000000
B         0.48943902400977    0.42478663234225   -0.78962715642100
O         0.17526990548284   -0.03484642061485   -2.06212750651164
C         0.01061916848828    1.09659775555682   -2.94338899878979
C         0.48987917916571    0.74684290970560   -4.34823436917209
H         1.50882204855241    0.37011927421368   -4.32681154502952
H         0.44508376643990    1.62221191790206   -4.99680448762267
H        -0.14889597421361   -0.02910087862331   -4.76860925924173
C        -1.49348081121658    1.39906990400412   -2.96998057343515
H        -1.73179529223575    2.21193741864904   -3.65427503619283
H        -2.02339800956681    0.50190000421279   -3.28983101252152
H        -1.84016690155692    1.65391039439470   -1.96837921670881
C         0.83223026813175    2.20673789032854   -2.21243253431955
O         0.75546385408561    1.78037376529217   -0.83509400867577
C         2.31475725876874    2.19042122485052   -2.59995874960655
H         2.71891902779045    1.19132176923080   -2.44980801384357
H         2.46637201519645    2.51170898792253   -3.62974305460824
H         2.85698675802608    2.86526571111520   -1.93866138844500
C         0.28080462165522    3.62284423674719   -2.33983664131728
H        -0.72248385460972    3.69181493743429   -1.92759644092665
H         0.92037327714874    4.30656296378268   -1.78318749638376
H         0.26323220901829    3.93517527795592   -3.38408772300307
B         1.56468419739281    0.62351092026670    1.84589178159642
O         2.92437901164485    0.56891764448317    2.13171457952131
C         3.36338769402272    1.88887073679459    2.50814343160610
C         4.53261355954901    1.78926445193134    3.47952205506735
H         4.27996742397429    1.16097425595801    4.32961773746221
H         5.38776554891346    1.34489152560489    2.97200185281550
H         4.81563533174455    2.77916457422550    3.83627867573592
C         3.79988088361372    2.57587761089579    1.21011343216429
H         4.20142910023155    3.57131027254913    1.39448031966414
H         4.56361697286846    1.96364596141992    0.73353512528766
H         2.95161586868875    2.62798688334129    0.52888841993994
C         2.05299101565320    2.50622438511087    3.08855863291173
O         1.04027028120853    1.81201419674426    2.33374480943153
C         1.89422572038311    4.00830820799655    2.88903059641685
H         1.86881180533569    4.25180077920631    1.83073165254158
H         0.95661759541879    4.33695399104637    3.33560662102879
H         2.71476946897328    4.54421633192991    3.36546124566933
C         1.83191217068653    2.14142688359659    4.56082582745122
H         1.93342778499897    1.06567370055637    4.69898384536969
H         2.53283794645465    2.66276174592968    5.21035410340102
H         0.81731402135818    2.41954269998652    4.84540204064685
B         2.27820000000000   -1.33089999999999    0.17410000000000
O         2.90137435461548   -2.56142169044150    0.39179967074411
C         4.26569373826579   -2.48353303918610   -0.07743432641361
C         5.11018269205229   -2.05854167209833    1.12830870823255
H         4.75408769339888   -1.09819114508016    1.49884694032910
H         4.97853641049630   -2.79371530454481    1.92143692608829
H         6.16789241397974   -1.99861936334768    0.87643473548114
C         4.72018847934878   -3.84574454961796   -0.58725294282189
H         4.74981792066593   -4.55013106511343    0.24276369301904
H         5.71789545977239   -3.77425584359643   -1.01957565922866
H         4.03435763909175   -4.23310398474543   -1.33588385315235
C         4.16642226034747   -1.36068053956517   -1.15775368679674
O         3.07427004081066   -0.56392592071780   -0.66188534165044
C         5.40963486176618   -0.49232395304167   -1.31544153356413
H         6.26583538604203   -1.09807021050274   -1.61112534628093
H         5.23113042797837    0.25867496428911   -2.08379020376720
H         5.63731392993626    0.02234137447048   -0.38646756918922
C         3.72931323916639   -1.89990417890534   -2.52577877073807
H         2.83716630381588   -2.51515837499808   -2.41705688079288
H         3.47203701012996   -1.05830105058922   -3.16749076413261
H         4.51931874526610   -2.47703473502895   -3.00348540318320
H        -3.38353922942791   -3.98811759419721   -2.57945942693877
H        -5.19928227408826    1.50471166836183    1.29592145506971
C         0.23590000000000   -1.68140000000000    2.96029999999999
C        -0.98356075633303   -2.18665311386838    3.39508989822062
C         1.29793091323781   -1.62456006435969    3.87994182279811
C        -1.14458067189754   -2.58230023265770    4.72528488807901
H        -1.82216494147301   -2.31824840001254    2.72674610788209
C         1.16471079988573   -1.99226227358488    5.20375312405959
H         2.26728950530983   -1.30604013967493    3.52686329236546
C        -0.06433578400024   -2.47777975401649    5.62160075667989
N        -2.27165669966561   -3.14924855991716    5.26961314641389
H         1.99833635400681   -1.94800758570723    5.88890771979022
S        -0.52336256684957   -3.11495281974647    7.16983934164280
C        -2.10122258711500   -3.48064391849186    6.49706870147217
C        -3.11501217129514   -4.15872115562650    7.34065115950292
H        -3.23295343904754   -3.63254213803637    8.28667695651360
H        -2.78670645309431   -5.17464549973444    7.56194236926608
H        -4.06438254031268   -4.19531131796948    6.81387769333303
101
 energy: -147.425146425931 gnorm: 0.037024457905 xtb: 6.4.1 (1a32961)
N        -0.95470718889027   -2.09509458335721   -0.25628214153334
C        -2.23024862296450   -1.68589903137275   -0.36404321180674
C        -3.13000127644459   -2.35475231905358   -1.20193195794417
C        -2.70811630781888   -3.45328246528282   -1.91916449253991
C        -1.38891315333704   -3.87289308372580   -1.78386631877141
C        -0.55898282148027   -3.15966041457198   -0.94582576015772
H         0.47346058432884   -3.44354096884950   -0.80442883922261
H        -1.01838024388010   -4.73233824381708   -2.31765960761336
H        -4.14908317419510   -2.02013224915086   -1.29777669852876
C        -2.59826014660035   -0.51822472274500    0.43353865239780
N        -1.60927393028020    0.05607604639935    1.14721178693240
C        -1.89364145254525    1.12260518223671    1.88765334441524
C        -3.15580412729601    1.67426649356494    1.97630719697029
C        -4.18717853710727    1.09107688358436    1.24983957836400
C        -3.90143491522615   -0.00970741309871    0.47065381942713
H        -4.68995467370048   -0.47401533423525   -0.09686769787549
H        -3.33095511971068    2.53453807202661    2.60146097797575
H        -1.05562274277001    1.54708982796170    2.41649483423327
Ir        0.42150000000000   -0.81650000000000    0.91330000000000
H         0.87260000000000   -2.23030000000000    1.54050000000000
B         0.49204848219230    0.43486706303518   -0.76757177554954
O         0.15457637776949   -0.02517981363832   -2.03232776827019
C         0.00560399226749    1.09378338841037   -2.92365167005558
C         0.49005414642613    0.73857540153207   -4.32570539376876
H         1.50518748746730    0.35806441415982   -4.30493728448245
H         0.44565543399558    1.61703904066159   -4.96444708444493
H        -0.15273048599389   -0.03114439679356   -4.74464966492526
C        -1.49663338685342    1.40612041385404   -2.96998387580541
H        -1.71616255452469    2.21519533133178   -3.66002732944288
H        -2.02596668328303    0.51143041932118   -3.29075443062249
H        -1.84588482889070    1.66446565732840   -1.97251190394342
C         0.82423954441843    2.20632069474188   -2.19972711509955
O         0.75880898624964    1.78432144419173   -0.82716851482557
C         2.30426772660935    2.19501214651195   -2.59739069940681
H         2.70552757555710    1.19758377685236   -2.43995976678767
H         2.44258753805909    2.50861577561078   -3.62815631857666
H         2.84637341221855    2.87466102540825   -1.94462662092713
C         0.27042523857346    3.62101551245620   -2.33662710833509
H        -0.72868372320684    3.69605473021702   -1.92095104485295
H         0.91524379748996    4.30344447423667   -1.78964893285154
H         0.25355772019205    3.91640100612748   -3.38230489634931
B         1.56505697506541    0.62972434577386    1.85649744691822
O         2.92281644383737    0.58184802740637    2.11669921246379
C         3.36206564600418    1.89183404728949    2.50856831044363
C         4.52937502960316    1.78994561610448    3.48286304068779
H         4.27934858327111    1.15691750350990    4.32722813654130
H         5.38214064215274    1.35259606529101    2.97110414731212
H         4.80283080715445    2.77903543601519    3.83863234942580
C         3.80404303103022    2.59118976938095    1.21930079975260
H         4.20255490196462    3.58243199392494    1.41199976627037
H         4.56682438429134    1.98145395162597    0.74277048904496
H         2.95456601374885    2.63788188025482    0.54236563609465
C         2.05405617747765    2.50827552842580    3.08877010790618
O         1.04268478607568    1.80727050266039    2.34765554039945
C         1.89713474458259    4.01031353616006    2.88758736859328
H         1.86380848333135    4.25243888351407    1.83143226403874
H         0.96458787563132    4.33504879190020    3.34063756291390
H         2.72127423423629    4.53723838474218    3.35961818466854
C         1.84258027589710    2.15188933228812    4.56528299997153
H         1.94622717246034    1.07772304569474    4.69832386749937
H         2.54605416588861    2.67695753045350    5.20340811571084
H         0.83001811724126    2.42714222963010    4.85092129765013
B         2.27820000000000   -1.33089999999998    0.17410000000000
O         2.90394186546457   -2.54899921752961    0.40127590794351
C         4.25882586992174   -2.48174266747255   -0.07757687673553
C         5.11457358743924   -2.06024192186255    1.12103657622175
H         4.75370621431858   -1.10256248666931    1.48803679759016
H         4.98349990466992   -2.79362749016515    1.91227109488185
H         6.16656291128577   -2.00165968247851    0.86017217450814
C         4.71190209563446   -3.84381387389093   -0.59012172592143
H         4.74404648347928   -4.54161385803151    0.24147928314684
H         5.70544513463350   -3.76327173098545   -1.02155387734782
H         4.02578110000701   -4.23276984718316   -1.33406912260823
C         4.16175254443122   -1.36109671270813   -1.15619400199181
O         3.06202574348475   -0.57373292287672   -0.67068517111202
C         5.40636320753687   -0.49431065655409   -1.30986811668697
H         6.25481403246662   -1.10743409010095   -1.59974907963341
H         5.22924115022962    0.24970209461518   -2.08131654145676
H         5.63060809902309    0.02282298973435   -0.38420108686142
C         3.73956660334881   -1.90420736499206   -2.52793637118262
H         2.84841448375462   -2.51658888279367   -2.41827893743826
H         3.48606215327042   -1.06448801126589   -3.17008237480278
H         4.53588081390433   -2.47700747464519   -2.99254753333979
H        -3.38925031405074   -3.97784407553139   -2.57084468824790
H        -5.18946542109253    1.48890088079650    1.29254160416560
C         0.23589999999998   -1.68140000000000    2.96029999999998
C        -0.98200364229889   -2.18758838365421    3.39458080297436
C         1.29740299390992   -1.61829182411677    3.88351798721384
C        -1.14582293057627   -2.57933974326311    4.72361080941859
H        -1.81863545259229   -2.32243950546216    2.72506900421421
C         1.16088268615058   -1.98312494677556    5.20593769079224
H         2.26475468134674   -1.29740084516616    3.53076932390951
C        -0.06553931187026   -2.46984929831815    5.62240706393859
N        -2.27159066945885   -3.14663961025008    5.26653405983184
H         1.99212186892543   -1.93460623854140    5.89290396187652
S        -0.52588125767623   -3.10507238348954    7.17477483808311
C        -2.11042876485122   -3.47633241960452    6.49056101918905
C        -3.12351933112960   -4.15361171249912    7.33296132197089
H        -3.24296129906175   -3.62587557711960    8.27701176980896
H        -2.79363932201684   -5.16804726594699    7.55640795260982
H        -4.07088651021030   -4.19207025214066    6.80485491377873
101
 energy: -147.425756536919 gnorm: 0.035929571240 xtb: 6.4.1 (1a32961)
N        -0.94562577457609   -2.09286628625374   -0.26619777590809
C        -2.22217829742287   -1.68405240038120   -0.36740578161113
C        -3.12739068601852   -2.35261259347757   -1.20075690480212
C        -2.71128945939296   -3.45107454116944   -1.92017508388284
C        -1.39026932317657   -3.87096148850229   -1.79160079949070
C        -0.55577180818357   -3.15685189463969   -0.95850027821558
H         0.47670335708136   -3.44464671850621   -0.82269194470750
H        -1.02393586659469   -4.73092172974166   -2.32645268753998
H        -4.14644477228764   -2.01634725277819   -1.28995304334577
C        -2.58829357594141   -0.52027264988547    0.43099792646650
N        -1.59980951665009    0.05374874141234    1.14609194328354
C        -1.88726390130135    1.11915998309903    1.88595060988039
C        -3.14981940232187    1.66917878946806    1.97594990889655
C        -4.18172557919762    1.08459326414535    1.24876332304852
C        -3.89286588198581   -0.01359390445259    0.46835870752098
H        -4.67897540965994   -0.47854315242086   -0.10168580210459
H        -3.32618046905050    2.52754015596123    2.60228222410215
H        -1.05250827449217    1.54513221356284    2.41934536087404
Ir        0.42150000000000   -0.81649999999999    0.91329999999999
H         0.87260000000000   -2.23030000000000    1.54050000000000
B         0.47801033942273    0.44865527731080   -0.74870409446458
O         0.13232131011050   -0.01677837042851   -2.00908470590589
C        -0.00387317127430    1.09401609558049   -2.90699811147258
C         0.48793683385656    0.72844287310281   -4.30464805059430
H         1.50057423395323    0.34205295859895   -4.27736302365842
H         0.45093061781996    1.60657787773087   -4.94371342994133
H        -0.15787730213692   -0.03850347892940   -4.72362096235327
C        -1.50484296168918    1.41480598374775   -2.96951822175812
H        -1.70971724610873    2.22187650528080   -3.66584709734683
H        -2.03526322125663    0.52159887934293   -3.29197727932082
H        -1.86221404776980    1.67969068067475   -1.97679344442778
C         0.81581642041949    2.20873348171027   -2.18721359438090
O         0.75854764593913    1.79331231925998   -0.81555490369181
C         2.29438231533082    2.19889709326744   -2.59374246375190
H         2.69791537558899    1.20348211335809   -2.42993397378922
H         2.42379787765890    2.50447209223686   -3.62770140717027
H         2.83755331737801    2.88581682358767   -1.94973146560965
C         0.26065663300424    3.62311789966320   -2.33151475570095
H        -0.73629449168237    3.70207852569023   -1.91177028796813
H         0.90918605282930    4.30976232719412   -1.79438454399872
H         0.23918593305837    3.90632777761305   -3.38024485131514
B         1.56677489407495    0.63838505869028    1.85201847946046
O         2.92362919108512    0.59183856381271    2.10184449924240
C         3.36226234264459    1.89594851539268    2.50718012304185
C         4.52809534017363    1.78897572904717    3.48430918007390
H         4.27863656707820    1.14947695606704    4.32382212185086
H         5.38301514996183    1.35844153236680    2.97057956916792
H         4.79569382349769    2.77717301257487    3.84627610686568
C         3.80911841424010    2.60726060636880    1.22507295590460
H         4.20396385310226    3.59731543170556    1.42847998266491
H         4.57545127923874    2.00275083191604    0.74766853512096
H         2.96163105030469    2.65645788624724    0.54620199044763
C         2.05439922534147    2.51001784396625    3.09051601391425
O         1.04154136334778    1.80457226392771    2.35900306589066
C         1.89611750934127    4.01257367258631    2.88751811423044
H         1.85486034050608    4.25369924645799    1.83145601276623
H         0.96785520950975    4.33853602589562    3.34820554647131
H         2.72553372563840    4.53691157849713    3.35256961403646
C         1.85311064596297    2.16053724833945    4.57119062159376
H         1.95976388259313    1.08726003050415    4.70708664774959
H         2.56022451889087    2.69065327079763    5.20047664001621
H         0.84193264891649    2.43542450278007    4.86125817905437
B         2.27819999999999   -1.33089999999996    0.17410000000001
O         2.90580570483972   -2.54269014013902    0.41126876167262
C         4.25456129894482   -2.48089053659633   -0.07668201837270
C         5.12024341255735   -2.06057477579570    1.11632595803203
H         4.76122185136092   -1.10281154939767    1.48448927540979
H         4.99295224497783   -2.79412304841445    1.90773514768990
H         6.16964949695742   -2.00320712989751    0.84708949619650
C         4.70343945714974   -3.84487454337710   -0.59057347735431
H         4.73943300379835   -4.54103434319551    0.24200245400335
H         5.69463378702996   -3.76193562911661   -1.02606534911175
H         4.01415794253943   -4.23443159067309   -1.33112211957844
C         4.15787710723841   -1.36200524464243   -1.15716587542593
O         3.05281083862992   -0.57910218798645   -0.68069442514241
C         5.40251020537281   -0.49337440281084   -1.30604719568230
H         6.25069438328331   -1.11004974354593   -1.58831331679040
H         5.22945983682992    0.24672641165116   -2.08195692597093
H         5.62177207456327    0.02724739004343   -0.38131802206704
C         3.74829891397959   -1.90891941657304   -2.53222117596115
H         2.85765040932021   -2.52248549794928   -2.42798599432462
H         3.49995840679536   -1.07054779285262   -3.17797204774191
H         4.55095578467684   -2.48055094207867   -2.98631513158284
H        -3.39608195014515   -3.97470888511079   -2.56839717182736
H        -5.18467838439844    1.47976903386535    1.29233124375742
C         0.23589999999997   -1.68140000000001    2.96029999999996
C        -0.98146818600151   -2.18891727876897    3.39287380203415
C         1.29512989633506   -1.61150265852950    3.88630522468198
C        -1.14840234456807   -2.57608978255610    4.72213931052760
H        -1.81571958675363   -2.32842470734347    2.72111809636829
C         1.15498755728302   -1.97210989660431    5.20963055299192
H         2.26194282289046   -1.28873883310016    3.53413451849282
C        -0.07087637197230   -2.46101358165191    5.62432308405731
N        -2.27418082646370   -3.14409242233657    5.26259713577981
H         1.98412268196218   -1.91827208910266    5.89912042516510
S        -0.53379303647752   -3.09314791141725    7.17882893170250
C        -2.12132451092279   -3.47120277703436    6.48622772988771
C        -3.13432030585702   -4.14813327516629    7.32717117673811
H        -3.25675240027100   -3.61821792778271    8.26952693415487
H        -2.80262634011630   -5.16137170579451    7.55320831533044
H        -4.08010129602437   -4.18935740654548    6.79616601156598
101
 energy: -147.426425889823 gnorm: 0.036442349737 xtb: 6.4.1 (1a32961)
N        -0.93398387040863   -2.09497980651843   -0.27742902216143
C        -2.21203116283825   -1.68493730691479   -0.37122635788919
C        -3.12321396433380   -2.35210399035152   -1.20091515035070
C        -2.71378520382068   -3.44998458171837   -1.92463349733501
C        -1.39024162648423   -3.86975717168262   -1.80627071158208
C        -0.54943080114645   -3.15663930228829   -0.97725397882889
H         0.48479759523184   -3.44597502789222   -0.85300715717112
H        -1.02868973758453   -4.72934997281961   -2.34538220023785
H        -4.14271537920300   -2.01378040969115   -1.28101053419782
C        -2.57576451318779   -0.52424164953574    0.42960240235601
N        -1.58786224269799    0.04744597813749    1.15028416706126
C        -1.87802977709306    1.11314925746935    1.89067100986102
C        -3.14110019180423    1.66270218595724    1.97924725625867
C        -4.17309311016806    1.07835711925462    1.24890585010658
C        -3.88094652454138   -0.01646793283059    0.46552425778798
H        -4.66431349873120   -0.48130843021909   -0.10890943240370
H        -3.31872558261597    2.51960714223176    2.60725746544042
H        -1.04615282798143    1.54183388046210    2.42754606946929
Ir        0.42150000000000   -0.81649999999999    0.91329999999999
H         0.87260000000000   -2.23030000000000    1.54050000000000
B         0.47286708325661    0.46617391220502   -0.72524372163914
O         0.09764985119850   -0.00297846529104   -1.97627181952204
C        -0.02252455023376    1.09738018537687   -2.88217887913953
C         0.48063089142002    0.71130485543925   -4.27157847903619
H         1.48853021762499    0.31243219150745   -4.22806890062856
H         0.46124517728502    1.58450286126802   -4.91895211195266
H        -0.16993990636445   -0.05265554500439   -4.68952539262631
C        -1.52101282342407    1.43160636213280   -2.96805790193741
H        -1.70617245626191    2.23537424172264   -3.67420052363588
H        -2.05453448941734    0.54071000859161   -3.29251199458927
H        -1.89291509901310    1.70825513754058   -1.98334973981019
C         0.80229272470710    2.21582630828000   -2.17011834499614
O         0.75837632161574    1.80753588456202   -0.79893981603221
C         2.27899814631801    2.20805957064372   -2.58797544672997
H         2.68870322793408    1.21666099016170   -2.41283858874831
H         2.39723222829666    2.49934548392632   -3.62759816407661
H         2.82349729274751    2.90799274681810   -1.95839038872825
C         0.24291601751912    3.62904551182302   -2.32229180599367