19
 energy: -29.872514872306 gnorm: 0.036891343520 xtb: 6.4.0 (f63f532)
C         1.05552000000000    1.20382000000000   -0.01029000000000
C         2.45123000000000    1.14851000000000    0.00722000000000
C         3.11363000000000   -0.08001000000000    0.05380000000000
O         4.47930000000000   -0.00756000000000    0.04817000000000
C         5.16643000000000   -1.09875000000000    0.66257000000000
C         6.65335000000000   -0.79401000000000    0.63130000000000
C         2.36924000000000   -1.26266000000000    0.05281000000000
C         0.97264000000000   -1.21200000000000    0.02820000000000
C         0.32144000000000    0.02029000000000    0.00031000000000
Br       -1.56715000000000    0.08455000000000   -0.03043000000000
H         0.55689000000000    2.16888000000000   -0.03633000000000
H         3.02718000000000    2.07075000000000   -0.00810000000000
H         4.99440000000000   -2.02968000000000    0.11248000000000
H         4.83663000000000   -1.21037000000000    1.70210000000000
H         7.00021000000000   -0.69344000000000   -0.40263000000000
H         7.22379000000000   -1.59091000000000    1.11650000000000
H         6.86808000000000    0.15445000000000    1.13397000000000
H         2.84567000000000   -2.23641000000000    0.04722000000000
H         0.40320000000000   -2.13806000000000    0.01915000000000
19
 energy: -29.874289792220 gnorm: 0.013150255730 xtb: 6.4.0 (f63f532)
C         1.06130144027309    1.20229222182234   -0.02203856137306
C         2.44362335163426    1.14764047331110    0.00437839169795
C         3.10790822811952   -0.07855601810531    0.05442154877359
O         4.47135255151365   -0.01777940391949    0.06922202991673
C         5.17794273312778   -1.10926674959138    0.65419455752783
C         6.66227654516634   -0.78349123385079    0.62773886920056
C         2.36298700899400   -1.25572707058248    0.06048847298005
C         0.97841772103518   -1.20356046041378    0.02674502581098
C         0.33364277065905    0.02236429982375   -0.00636710528229
Br       -1.56713339011626    0.08446183954489   -0.02907519127663
H         0.55967373184602    2.15899393388521   -0.04599164948639
H         3.02070258712268    2.06026803488329   -0.00857978121343
H         4.99707840654746   -2.03138379529180    0.09129518381135
H         4.83089992980127   -1.24340158559660    1.68626937023200
H         7.00409195880286   -0.67894386768854   -0.40134184550676
H         7.22176455745280   -1.58290679305308    1.10805380183620
H         6.85847728525272    0.15274619983965    1.14912239751360
H         2.83826068836237   -2.22444193717064    0.08209025164563
H         0.40841189440522   -2.12191808784631    0.02739423319208
19
 energy: -29.874805324485 gnorm: 0.005432990038 xtb: 6.4.0 (f63f532)
C         1.06382478632680    1.20461112361226   -0.03415440332051
C         2.44011642428327    1.15075996415654   -0.00085731154067
C         3.10597627548762   -0.07504682476560    0.06547715768881
O         4.46546948813242   -0.01996485784814    0.09588500913159
C         5.18443075087791   -1.12317338377397    0.64182083195180
C         6.66496964876417   -0.77626182517987    0.62601539466627
C         2.36019009165856   -1.25082967474454    0.08133590776592
C         0.97977017878210   -1.19921708442494    0.03602779621938
C         0.34013262381621    0.02447422624942   -0.01149201726766
Br       -1.57126381436850    0.08699416975017   -0.03896039497344
H         0.55795652757207    2.15589085243882   -0.06698013272146
H         3.02178629452189    2.05676674340302   -0.01660704724215
H         5.00887893035254   -2.03063120551085    0.05052135549412
H         4.83370306465767   -1.29620651176038    1.66959359271091
H         7.00497480626022   -0.65168362015446   -0.39785577434153
H         7.22477777975326   -1.57903029879603    1.09501075714296
H         6.84026262297698    0.14889536199538    1.16891895124161
H         2.83801278520601   -2.21577335805792    0.12343486913749
H         0.40771073493882   -2.11318379658891    0.04088545825656
19
 energy: -29.875150570602 gnorm: 0.006858966044 xtb: 6.4.0 (f63f532)
C         1.06485883283211    1.20781246593592   -0.04754293622911
C         2.43928594503359    1.15429359320089   -0.00616474617468
C         3.10549533360256   -0.07198692067914    0.08122607198329
O         4.46063095322941   -0.01762401616612    0.12679330413080
C         5.18790292285331   -1.13727941956502    0.62781243276073
C         6.66476987585184   -0.77106470098189    0.62619144376046
C         2.35887115319486   -1.24768562196499    0.10585776779412
C         0.97885062988924   -1.19713978921684    0.04822903478981
C         0.34346934695273    0.02638966128257   -0.01643932550903
Br       -1.57529292372868    0.09112810254835   -0.05152147356339
H         0.55523907049688    2.15601782844796   -0.09321726003008
H         3.02647278961350    2.05612370959826   -0.02837750578377
H         5.02021716686380   -2.02413353746217   -0.00010207732716
H         4.83786727716073   -1.35641221249793    1.64990385017657
H         7.00632598326830   -0.61911136346854   -0.39269557240220
H         7.23170623256913   -1.57678323998446    1.08058082672558
H         6.82072201448611    0.14352584738485    1.19130006045487
H         2.83984039678436   -2.20978232412327    0.16682219055457
H         0.40444699904626   -2.10889806228841    0.05936391388864
19
 energy: -29.875437961791 gnorm: 0.007064297871 xtb: 6.4.0 (f63f532)
C         1.06555070303706    1.21013507179367   -0.05961160556659
C         2.44037423383313    1.15630631081350   -0.01034990966557
C         3.10548357957643   -0.07062066907350    0.09680097651513
O         4.45699156915511   -0.01307789493920    0.15614575565308
C         5.18923841814880   -1.14786014976002    0.61419382546109
C         6.66277918462512   -0.76819962434381    0.62780881771528
C         2.35793937536588   -1.24631208024125    0.12933970979003
C         0.97675008000083   -1.19643194699371    0.06172446327898
C         0.34456798169959    0.02776578490419   -0.02052163637324
Br       -1.57730003723921    0.09520031618353   -0.06374513243398
H         0.55414491816104    2.15731932908914   -0.11954336888074
H         3.03201986677164    2.05615910236897   -0.03971603859400
H         5.02761837801194   -2.01135538731122   -0.04890438764737
H         4.84276090608067   -1.40956503786379    1.62833566419332
H         7.00804715223280   -0.58826234326286   -0.38617784512616
H         7.23954012097907   -1.57606308839674    1.06738830910428
H         6.80395535731133    0.13649988424348    1.21260674188916
H         2.84063727317534   -2.20669247989100    0.20422732671565
H         0.40058093907350   -2.10755509731931    0.07801833397167
19
 energy: -29.875695809120 gnorm: 0.006169879651 xtb: 6.4.0 (f63f532)
C         1.06628017612275    1.21110914051941   -0.07077306307038
C         2.44195860925036    1.15654163835843   -0.01310807953850
C         3.10505504570641   -0.07050115428821    0.11244002817938
O         4.45414509313484   -0.00774849863688    0.18369398600162
C         5.19002312904724   -1.15517326157839    0.59976967660655
C         6.66047413595431   -0.76645489831966    0.62970115974349
C         2.35662262418384   -1.24569853636539    0.15233053355233
C         0.97425618290099   -1.19570244694594    0.07689605500625
C         0.34410983276815    0.02886095294799   -0.02268089208012
Br       -1.57708830929352    0.09849460934483   -0.08046970872363
H         0.55544533624141    2.15843206498286   -0.14637832783372
H         3.03605843334963    2.05577205099614   -0.04943254753008
H         5.03239374160557   -1.99243036771178   -0.09655170987728
H         4.84783202992622   -1.45692883916249    1.60298715171231
H         7.01104121866918   -0.55726734901311   -0.37823513970118
H         7.24595656361613   -1.57791757211413    1.05279041364806
H         6.79091043956310    0.12649417784854    1.23564987064609
H         2.83903416635545   -2.20551829908285    0.23943435888660
H         0.39717155089804   -2.10697341177928    0.09995623437221
19
 energy: -29.875941125377 gnorm: 0.005436694716 xtb: 6.4.0 (f63f532)
C         1.06661296947941    1.21092709073262   -0.08411402207760
C         2.44257028783669    1.15598008760477   -0.01464993903469
C         3.10360850329605   -0.07003758564919    0.13070932475032
O         4.45146820634709   -0.00138135140379    0.21271210961607
C         5.19155408836627   -1.16042287919332    0.58288858652981
C         6.65920024735172   -0.76515816362269    0.63149359122219
C         2.35476603444326   -1.24441601293757    0.17909996890583
C         0.97192695278732   -1.19390072018578    0.09517515049441
C         0.34241991456156    0.02982460078761   -0.02594500805771
Br       -1.57553356919304    0.10018706206767   -0.10214462445726
H         0.55816566828318    2.15855926214548   -0.17761144638970
H         3.03695170239204    2.05530870597361   -0.05806057327066
H         5.03740897700602   -1.96652676910550   -0.14910419242352
H         4.85313036085369   -1.50619968068889    1.57165155708473
H         7.01544946062069   -0.52288486809401   -0.36816874443732
H         7.25025377648890   -1.58395708420649    1.03367831035578
H         6.78174724693574    0.11141190083600    1.26393607892173
H         2.83507594015813   -2.20437496771648    0.27941423610349
H         0.39490323198540   -2.10554862734398    0.12705963616411
19
 energy: -29.876160405540 gnorm: 0.005153383261 xtb: 6.4.0 (f63f532)
C         1.06631757450977    1.20983760007827   -0.09939698923646
C         2.44170999310776    1.15577304141865   -0.01478379466571
C         3.10133550977234   -0.06782170447192    0.15230025585702
O         4.44881521756429    0.00596117745011    0.24449056763136
C         5.19404285186662   -1.16437632595865    0.56239753303411
C         6.65943545159867   -0.76475182102156    0.63299472458099
C         2.35270061087141   -1.24131028902039    0.21177882230444
C         0.97027531105775   -1.19075851767835    0.11718487687036
C         0.34009965824165    0.03038488000046   -0.02971380800452
Br       -1.57342769855524    0.09874965272493   -0.13217518675537
H         0.56099402938195    2.15704874494864   -0.21531480628356
H         3.03466121403954    2.05558114807967   -0.06580107438400
H         5.04309383797789   -1.93306144331333   -0.20942010706162
H         4.85809751528475   -1.56009407424578    1.53233790696210
H         7.02088233516879   -0.48347625492356   -0.35522100805427
H         7.25286403814820   -1.59525970019710    1.00786952496663
H         6.77591244748257    0.08890371325022    1.29862982702197
H         2.82994224168444   -2.20130190588585    0.32935590418026
H         0.39392786079700   -2.10263792123436    0.16050683103628
19
 energy: -29.876298488571 gnorm: 0.005016991898 xtb: 6.4.0 (f63f532)
C         1.06554187765727    1.20816401778235   -0.11536473528539
C         2.43969335007625    1.15651066337963   -0.01214296794098
C         3.09867855979096   -0.06368712449100    0.17696175159293
O         4.44626267727041    0.01264229370052    0.27595011552307
C         5.19707529911511   -1.16666664470459    0.54077420805124
C         6.66088575209957   -0.76583531838526    0.63259742458509
C         2.35049352097167   -1.23628284447572    0.24951510470634
C         0.96923691176792   -1.18688505797008    0.14115096503690
C         0.33801253752461    0.03028126242253   -0.03580786962479
Br       -1.57136821755436    0.09344723112820   -0.17188849630033
H         0.56298298119276    2.15360826490307   -0.25474488528273
H         3.03047033843253    2.05691205875785   -0.07011709934944
H         5.04864843127188   -1.89643091942978   -0.26767007426727
H         4.86369866645696   -1.61136830411138    1.48922122953809
H         7.02509710597256   -0.44177186397927   -0.34159654263888
H         7.25476131903263   -1.61078491096634    0.97430531972029
H         6.77319477705557    0.05932431763132    1.33493614623115
H         2.82472013544728   -2.19526716972516    0.38617728763812
H         0.39359397641857   -2.09851995146677    0.19576311806661
19
 energy: -29.876345700747 gnorm: 0.003243484590 xtb: 6.4.0 (f63f532)
C         1.06524484431094    1.20686202974239   -0.11794623337887
C         2.43850081557069    1.15743408531976   -0.00823068846790
C         3.09797942799022   -0.06093208146052    0.18484376049657
O         4.44627205469170    0.01371146762647    0.28219017201776
C         5.19752111571467   -1.16489902978689    0.53518016960830
C         6.66192953306725   -0.76776975607214    0.63032600398555
C         2.34992414347888   -1.23325049864888    0.26186110156506
C         0.96969415215012   -1.18550647994178    0.14910215321571
C         0.33817559498656    0.02920092225131   -0.03743613026436
Br       -1.56981535157038    0.08752459856008   -0.19509122801070
H         0.56309474758396    2.15060072117365   -0.26451787335857
H         3.02789286219772    2.05828628545630   -0.06680410694924
H         5.04786981970915   -1.88415473744933   -0.27775649483337
H         4.86475449353655   -1.61766072867098    1.47579874108519
H         7.02396833105485   -0.43040103826661   -0.33753639026402
H         7.25414354501167   -1.61840428221548    0.95751666927709
H         6.77688664328490    0.04442531847170    1.34390052253958
H         2.82347837899366   -2.19101965212814    0.40580349892046
H         0.39416484823706   -2.09665714396076    0.20681635281581
19
 energy: -29.876385656143 gnorm: 0.002123490275 xtb: 6.4.0 (f63f532)
C         1.06485495075794    1.20590139385164   -0.12753597552604
C         2.43665690962142    1.15991202147665   -0.00695351810964
C         3.09725662352984   -0.05591045470590    0.19781057927142
O         4.44580407934451    0.01881904702064    0.30008455659718
C         5.19758137963465   -1.16545317468543    0.52730433178925
C         6.66253259782024   -0.76953163970550    0.62828896995418
C         2.34994471819985   -1.22843944310569    0.28108934694509
C         0.97103025047865   -1.18368803369245    0.16080027266526
C         0.33948638219476    0.02785702349177   -0.04263818705473
Br       -1.56747427750120    0.08038596676064   -0.21739798877637
H         0.56234844965073    2.14701094962965   -0.28562698944135
H         3.02478120462429    2.06094098450640   -0.06952732449755
H         5.04818539264977   -1.86565308103155   -0.30464373727231
H         4.86564468456351   -1.64229776771711    1.45825932155411
H         7.02139784598646   -0.40567692855325   -0.33123609501130
H         7.25385883214740   -1.63036879152052    0.93012674529068
H         6.77861010604358    0.02191092668203    1.36533542194118
H         2.82349527364716   -2.18407300640989    0.43849732871616
H         0.39568459660662   -2.09425599229197    0.22598294096481
19
 energy: -29.876411785824 gnorm: 0.002171602288 xtb: 6.4.0 (f63f532)
C         1.06424710736307    1.20531319261468   -0.13329376220218
C         2.43537476678252    1.16207822092384   -0.00604978624201
C         3.09704650510125   -0.05227009079259    0.20526081333848
O         4.44558318262364    0.02209304583370    0.30925322555201
C         5.19681280664938   -1.16474926601377    0.52593688823644
C         6.66301699365286   -0.77182421895928    0.62591991804756
C         2.35061765687037   -1.22534464287574    0.29153495481673
C         0.97232120453295   -1.18341405608308    0.16576838108135
C         0.34086437367256    0.02627843259308   -0.04742652802396
Br       -1.56600262692470    0.07501991743022   -0.22877122618678
H         0.56045838992337    2.14454268127121   -0.29767607501412
H         3.02291685308262    2.06330549085860   -0.07001875333486
H         5.04425097330263   -1.85793643205173   -0.31135205531798
H         4.86734579036778   -1.64836912924594    1.45408235598094
H         7.01585686680186   -0.38930396040332   -0.32891026904641
H         7.25460518743601   -1.63972113984494    0.90684347771906
H         6.78373958625300    0.00414433965630    1.37878712138940
H         2.82531839895893   -2.17877149569266    0.45478604800655
H         0.39730598355009   -2.09368088921842    0.23334527119982
19
 energy: -29.876461307267 gnorm: 0.002406128243 xtb: 6.4.0 (f63f532)
C         1.06331982108750    1.20445380979478   -0.14012810062680
C         2.43373241058101    1.16585261378269   -0.00565891234193
C         3.09724985627295   -0.04653783602777    0.21246973698057
O         4.44547677057379    0.02754189350777    0.32019598006622
C         5.19403845885923   -1.16217025689535    0.53142174520014
C         6.66326230674625   -0.77592899493779    0.62082149129642
C         2.35266227327628   -1.22098709618009    0.30059235727132
C         0.97502754029854   -1.18420472704576    0.16795115246122
C         0.34377920826528    0.02307032342691   -0.05406791858249
Br       -1.56395647355172    0.06665754424915   -0.24240262833459
H         0.55643620899686    2.14074391457061   -0.31111251084838
H         3.02070498941102    2.06754715924383   -0.06949867733610
H         5.03301683902388   -1.85375318729669   -0.30535539066999
H         4.87002333342655   -1.64487195821538    1.46193748491820
H         7.00037644140852   -0.36521671623028   -0.32754315098380
H         7.25667542256353   -1.65372808899503    0.86360526855413
H         6.79846594326191   -0.02579165145985    1.39544113501723
H         2.83058275305946   -2.17081696423433    0.47232221332070
H         0.40080589643935   -2.09446978105724    0.23702872463800
19
 energy: -29.876492691161 gnorm: 0.002910260710 xtb: 6.4.0 (f63f532)
C         1.06302148660749    1.20373110021795   -0.14488886146665
C         2.43332723446534    1.16735556338557   -0.00656022483020
C         3.09735283796711   -0.04410755328911    0.21612472479113
O         4.44501084169581    0.03065750848692    0.32727399795991
C         5.19207793893552   -1.15980837219210    0.53979389228326
C         6.66334842598437   -0.77797672792003    0.61555897054676
C         2.35396633164989   -1.21936855573794    0.30505148918747
C         0.97651274216001   -1.18525749348373    0.16772366310603
C         0.34511278687687    0.02114913796628   -0.05907351026577
Br       -1.56321713391803    0.06291576277470   -0.25208429559179
H         0.55458342626215    2.13866883113065   -0.31858236136439
H         3.01996756777579    2.06958445736847   -0.06980745669001
H         5.02240288211199   -1.85609690465015   -0.29092106230144
H         4.87380005261617   -1.63500328645965    1.47627021839683
H         6.98459712095800   -0.34077688965237   -0.32746965540363
H         7.25906137491042   -1.66390887676361    0.82237276350952
H         6.81398482776056   -0.05078787773578    1.40988560171008
H         2.83351592137617   -2.16737482600738    0.48113607248113
H         0.40325333380457   -2.09620499743853    0.23621603394180
19
 energy: -29.876506815832 gnorm: 0.002853973745 xtb: 6.4.0 (f63f532)
C         1.06323721352127    1.20379023033629   -0.14284710772518
C         2.43410045609931    1.16626185283497   -0.00727692155579
C         3.09752294744525   -0.04598982902835    0.21237799844429
O         4.44464963898414    0.03002121137995    0.32454697175244
C         5.19138636801546   -1.15842162395832    0.55138254399410
C         6.66319804564426   -0.77710677460723    0.61261694417020
C         2.35420373805702   -1.22138055613086    0.29759803004154
C         0.97636669310346   -1.18643959919317    0.16035722935494
C         0.34472863374234    0.02125947117305   -0.06035764053473
Br       -1.56400438886992    0.06517139054187   -0.24828362292530
H         0.55480581823311    2.13974680674778   -0.31178175101024
H         3.02090484714184    2.06874855410128   -0.06843788014631
H         5.01648677538363   -1.86922726573076   -0.26683757466347
H         4.87663973045803   -1.61724030915014    1.49855090886233
H         6.97357871929324   -0.33754089026141   -0.32985315007206
H         7.26078991582818   -1.66094496094619    0.80745148965143
H         6.82575145342097   -0.05480419625497    1.40460590161041
H         2.83358931586765   -2.17015635490292    0.46959607015443
H         0.40374407863092   -2.09835715695070    0.22461156059701
19
 energy: -29.876520963711 gnorm: 0.001088899828 xtb: 6.4.0 (f63f532)
C         1.06373497573699    1.20338370591888   -0.14402672260417
C         2.43456029886589    1.16464870047168   -0.00777693612578
C         3.09697892206530   -0.04754635449848    0.21410869205789
O         4.44402327149066    0.02943677677003    0.32820017412440
C         5.19252425853832   -1.15831453044616    0.55212188886106
C         6.66358103729693   -0.77597633444989    0.61178092504995
C         2.35291383663290   -1.22226092058951    0.30032371557442
C         0.97522853765908   -1.18576472073024    0.16193941173699
C         0.34354677043437    0.02195999664700   -0.05976163982253
Br       -1.56393854240899    0.06639030406171   -0.25562545097975
H         0.55698509509398    2.14013955984209   -0.31577839279727
H         3.02112292628814    2.06714365687086   -0.06988026608733
H         5.01689070295606   -1.86823316167918   -0.26669206272903
H         4.87966258392557   -1.61901887425601    1.49893152469069
H         6.96912843094140   -0.32414531305571   -0.32842737130119
H         7.26296694208319   -1.66355616109308    0.79372775025277
H         6.82893297711511   -0.06066580729934    1.41217136171761
H         2.83031939043774   -2.17238141606563    0.47539516891115
H         0.40251758484754   -2.09784910641885    0.22728822947017
19
 energy: -29.876524849786 gnorm: 0.000783316469 xtb: 6.4.0 (f63f532)
C         1.06456015900256    1.20340625399752   -0.14441701415030
C         2.43534107076716    1.16214361247272   -0.00760998228198
C         3.09635681543068   -0.05067803492056    0.21477458563411
O         4.44350146524329    0.02643736722753    0.32812958245764
C         5.19448394003070   -1.15975313216621    0.55089530149004
C         6.66404557321883   -0.77348712805689    0.61229633449380
C         2.35069941688064   -1.22421156852729    0.30136160192525
C         0.97308937982535   -1.18483718380029    0.16294438233589
C         0.34189829916648    0.02362139103558   -0.05968150489930
Br       -1.56394878781001    0.06974558495961   -0.25627403581649
H         0.56040405745906    2.14151695608683   -0.31500626609072
H         3.02227617971345    2.06413190834320   -0.07035726852899
H         5.02138122677134   -1.86906957535730   -0.26878201564763
H         4.88159901494096   -1.62303587038058    1.49600247260555
H         6.97006579806474   -0.32112900195249   -0.32753251675698
H         7.26506444758711   -1.65891915563880    0.79658521394178
H         6.82610109436325   -0.05593966528449    1.41240565190715
H         2.82524248794799   -2.17610615490683    0.47433694567020
H         0.39951836139661   -2.09644660313109    0.22794853171102
19
 energy: -29.876526082639 gnorm: 0.000470080874 xtb: 6.4.0 (f63f532)
C         1.06506411466854    1.20330377967050   -0.14420372876145
C         2.43563497092257    1.16146950704975   -0.00734602799823
C         3.09618690291051   -0.05145459636342    0.21517242544084
O         4.44325076825699    0.02566728426739    0.32949908360322
C         5.19467286425640   -1.16046204532555    0.55171970181204
C         6.66398716322775   -0.77256340192100    0.61231622877774
C         2.35000581033109   -1.22462174530801    0.30144988975960
C         0.97251837718262   -1.18462294089288    0.16266951106764
C         0.34186228276384    0.02385671342196   -0.05951878570145
Br       -1.56358902502712    0.07060020007501   -0.25756037735330
H         0.56154620919086    2.14175057880203   -0.31666390092908
H         3.02306392024836    2.06308669742996   -0.07038357365574
H         5.02168448828583   -1.86975094089915   -0.26864962771815
H         4.88261187494005   -1.62473779191236    1.49682086749176
H         6.96714173939136   -0.31795577376712   -0.32687539947498
H         7.26738568364091   -1.65717315773971    0.79336922941495
H         6.82633002027854   -0.05634281547212    1.41287461798469
H         2.82400205775220   -2.17684474522023    0.47531286725677
H         0.39831977677888   -2.09581480589486    0.22801699898316
19
 energy: -29.876526670859 gnorm: 0.000188771406 xtb: 6.4.0 (f63f532)
C         1.06544222593430    1.20330391235953   -0.14508814813734
C         2.43588631889690    1.16134679834877   -0.00745395155295
C         3.09615332417329   -0.05174647006237    0.21561559406161
O         4.44311861224627    0.02498658934683    0.33013968014921
C         5.19455688742486   -1.16110632511793    0.55213468934328
C         6.66378941467181   -0.77209996301525    0.61195139989588
C         2.34977252935972   -1.22480457362558    0.30188518065062
C         0.97231304108297   -1.18476304312387    0.16275207810886
C         0.34217777675769    0.02381898311132   -0.06025891066948
Br       -1.56341297843997    0.07123363402409   -0.25785756468347
H         0.56204513440772    2.14160694627207   -0.31712606354625
H         3.02392955853267    2.06262245443208   -0.07011417573964
H         5.02139268354924   -1.87040923431919   -0.26806768553802
H         4.88314913400723   -1.62550413964045    1.49723930009136
H         6.96526372319067   -0.31541509481638   -0.32675346857158
H         7.26851479205870   -1.65599449568479    0.79108378978727
H         6.82597707185779   -0.05730952888069    1.41377411820725
H         2.82398497650123   -2.17677514271429    0.47603742726188
H         0.39762577378709   -2.09560130689371    0.22812671088158
