10
 energy: -14.024352326618 gnorm: 0.021551096280 xtb: 6.4.1 (1a32961)
N        -1.10974000000000    0.00988000000000   -0.00151000000000
C        -0.30888000000000    1.12232000000000    0.00300000000000
C         1.00249000000000    0.70174000000000   -0.00040000000000
C         0.99217000000000   -0.71363000000000   -0.00093000000000
C        -0.32496000000000   -1.11385000000000    0.00228000000000
H        -2.12143000000000    0.01701000000000   -0.00554000000000
H        -0.73845000000000    2.11496000000000    0.00707000000000
H         1.87335000000000    1.34462000000000   -0.00093000000000
H         1.85285000000000   -1.36996000000000   -0.00194000000000
H        -0.76949000000000   -2.10024000000000    0.00560000000000
10
 energy: -14.025119019219 gnorm: 0.007227340628 xtb: 6.4.1 (1a32961)
N        -1.10456276089243    0.00976389977650    0.00304386126665
C        -0.30819935814539    1.11426107929275    0.00020972659531
C         0.99644393010285    0.69882526141340    0.00088500827700
C         0.98602149630039   -0.71050156619179    0.00050144719937
C        -0.32461908738614   -1.10628015759659   -0.00060717375211
H        -2.11135638678532    0.01709258810502    0.00244103629598
H        -0.73037939214973    2.10140599590404    0.00039106360693
H         1.86318043086034    1.33435002858879    0.00090216755345
H         1.84304119186180   -1.35898706080110    0.00017687914520
H        -0.76166006376637   -2.08708006849102   -0.00124401618778
10
 energy: -14.025167014539 gnorm: 0.002681660798 xtb: 6.4.1 (1a32961)
N        -1.10362418626354    0.00975264806021    0.00004498971203
C        -0.30936928886330    1.11155529123261    0.00219068834281
C         0.99472219333755    0.69854558745918    0.00037334559211
C         0.98423857692411   -0.71020417818068   -0.00023884056667
C        -0.32589161783430   -1.10374915774735    0.00149979535742
H        -2.10914516832642    0.01721604968243   -0.00206347292372
H        -0.72736985650092    2.09861850767656    0.00386776925241
H         1.86149144358694    1.33067540415305   -0.00016894523048
H         1.84152116495936   -1.35511582246786   -0.00134876302163
H        -0.75866326101948   -2.08444432986816    0.00254343348572
10
 energy: -14.025174191636 gnorm: 0.001015028817 xtb: 6.4.1 (1a32961)
N        -1.10395975809152    0.00975922124060    0.00181833824121
C        -0.31027769240642    1.11117419870057    0.00081739918120
C         0.99432510954112    0.69876367114051    0.00062363249327
C         0.98381316343007   -0.71043979203589    0.00024902459286
C        -0.32681575401172   -1.10339785220958   -0.00001046039108
H        -2.10951898484536    0.01728473636620    0.00171050883688
H        -0.72612274220121    2.09931033597133    0.00120675554499
H         1.86189266262762    1.32962862333770    0.00071884431513
H         1.84197024482777   -1.35404272585476   -0.00003092949463
H        -0.75739624887036   -2.08519041665668   -0.00040311331982
10
 energy: -14.025176091388 gnorm: 0.000491819857 xtb: 6.4.1 (1a32961)
N        -1.10464226536957    0.00976659419594    0.00103742968198
C        -0.31118024175090    1.11128402149476    0.00123349669238
C         0.99400820023903    0.69904262780073    0.00074149080461
C         0.98347273220510   -0.71074194897821    0.00011222385934
C        -0.32771416805964   -1.10350385975559    0.00055153636000
H        -2.11052856133885    0.01734902608464    0.00096229522936
H        -0.72478465309659    2.10085198617661    0.00165847595114
H         1.86260590092019    1.32894278370553    0.00063099918735
H         1.84270320658588   -1.35336057560660   -0.00058428945162
H        -0.75603015033465   -2.08678065511782    0.00035634168547
10
 energy: -14.025176277247 gnorm: 0.000061696309 xtb: 6.4.1 (1a32961)
N        -1.10460621153312    0.00976121662472    0.00101819715840
C        -0.31097431047910    1.11132426409694    0.00120231146079
C         0.99399244667746    0.69895107340107    0.00048645988101
C         0.98346751659116   -0.71064469125851    0.00020344255082
C        -0.32750646813314   -1.10353780383482    0.00032284810113
H        -2.11045395423357    0.01733875531547    0.00113443778758
H        -0.72480537502126    2.10063537000344    0.00188392563001
H         1.86238141735467    1.32908595669438    0.00043355952106
H         1.84247436170339   -1.35350416525790   -0.00014605510137
H        -0.75605942292649   -2.08655997578478    0.00016087301057
