17
 energy: -30.409131977886 gnorm: 0.054971754641 xtb: 6.4.1 (1a32961)
S        -0.85847000000000   -0.89723000000000    0.74107000000000
C         0.24170000000000    0.32769000000000    0.36646000000000
Cl        1.88711000000000    0.17610000000000    0.83679000000000
C        -0.31735000000000    1.37620000000000   -0.31508000000000
C        -1.71460000000000    1.16417000000000   -0.52664000000000
C        -2.15301000000000   -0.03867000000000    0.00265000000000
C        -3.48919000000000   -0.62188000000000    0.01261000000000
O        -3.69378000000000   -1.83677000000000    0.03944000000000
C        -4.65157000000000    0.36592000000000    0.01367000000000
C        -6.00626000000000   -0.32454000000000    0.02945000000000
H         0.23564000000000    2.24597000000000   -0.64753000000000
H        -2.35127000000000    1.86030000000000   -1.05955000000000
H        -4.58638000000000    0.99808000000000   -0.87786000000000
H        -4.56432000000000    0.99974000000000    0.90353000000000
H        -6.13021000000000   -0.96368000000000   -0.85119000000000
H        -6.81205000000000    0.41558000000000    0.03048000000000
H        -6.11904000000000   -0.95306000000000    0.91879000000000
17
 energy: -30.411691329166 gnorm: 0.022742614920 xtb: 6.4.1 (1a32961)
S        -0.86381396336052   -0.92610448909854    0.73221316151825
C         0.23534596335871    0.32305149985699    0.35888888744697
Cl        1.88449714572192    0.19243012303861    0.82155939652892
C        -0.33524445701710    1.36801616080282   -0.31489407504017
C        -1.71723068089829    1.16285695536689   -0.50455726707611
C        -2.15937217982871   -0.03428965446643    0.01263483041343
C        -3.49807074306411   -0.61666538585448    0.01115876348458
O        -3.68017359561248   -1.82168814596438    0.05990587550000
C        -4.65194269963132    0.36958062218580    0.00339866692327
C        -6.00627361687857   -0.32555806974633    0.02523747087743
H         0.20591592090934    2.23573096306408   -0.64747534688874
H        -2.34610156805601    1.85851162321582   -1.03040003710923
H        -4.56886774399258    0.99975987635564   -0.88394746125072
H        -4.54493032784482    1.01128685692011    0.88182405108578
H        -6.12383898389688   -0.96643346316647   -0.84764222340639
H        -6.80630190136411    0.41325250461613    0.02698451759325
H        -6.10664656854446   -0.94981797712625    0.91220078939949
17
 energy: -30.412391858416 gnorm: 0.007583879114 xtb: 6.4.1 (1a32961)
S        -0.86146741081120   -0.95266563352151    0.71611422021259
C         0.23899794540099    0.31695774774500    0.34432961599665
Cl        1.89193784218951    0.20073156370865    0.79136671648166
C        -0.34796113379464    1.36601642614195   -0.30731226784672
C        -1.72226660118047    1.16092020208863   -0.48508348029474
C        -2.16516272298177   -0.03483698906554    0.02123087891769
C        -3.50685547729226   -0.61939291359902    0.02918307792136
O        -3.67151370912620   -1.82127983445099    0.09706966592961
C        -4.65078706428402    0.37092569541991   -0.01036249546384
C        -6.00686708410931   -0.32207058555542    0.01735907943945
H         0.18421120138615    2.23729083805899   -0.63503477457476
H        -2.35452501477112    1.86586252887895   -0.98882881010992
H        -4.55405076787907    0.99015861011215   -0.90292961135118
H        -4.53846965368484    1.02744748122410    0.85541533309290
H        -6.11695866548484   -0.96918063387892   -0.84829805918959
H        -6.80465786354761    0.41485887640858    0.01465927331768
H        -6.09665382002929   -0.93782337971550    0.90821163752116
17
 energy: -30.412656414162 gnorm: 0.005406956428 xtb: 6.4.1 (1a32961)
S        -0.85735849553480   -0.96520354520627    0.70406335272110
C         0.24623801753943    0.31245215409008    0.33202041015537
Cl        1.90206787532809    0.19453329526614    0.75863636357122
C        -0.35061566344306    1.36767335271934   -0.29989269953704
C        -1.72731420320946    1.16672599031101   -0.46427603920198
C        -2.16801522891459   -0.03450056321533    0.02713073005568
C        -3.51007860069355   -0.62272847360270    0.03866414161677
O        -3.66743737729408   -1.82423191146727    0.13799084151596
C        -4.65000043582378    0.36840551345848   -0.02270839681873
C        -6.00860048482121   -0.32040020616708    0.01105145972350
H         0.17808029502970    2.24333360662022   -0.62231865611403
H        -2.36535201847119    1.88132099227331   -0.94871962247152
H        -4.54659123112893    0.97080576672582   -0.92625230640914
H        -4.53845951358041    1.04143899279781    0.83136687860314
H        -6.11772578822363   -0.97477558160658   -0.84906529489114
H        -6.80537644993631    0.41683388782205    0.00181966160419
H        -6.09651069682222   -0.92776327081905    0.90757917587666
17
 energy: -30.412971924071 gnorm: 0.008780518492 xtb: 6.4.1 (1a32961)
S        -0.84555555114576   -0.98457704516405    0.67610940753509
C         0.25858060784956    0.30552602045073    0.31053414482157
Cl        1.91844296868108    0.17780530922444    0.70178291043364
C        -0.35281682603620    1.37389370978506   -0.28488087792117
C        -1.73460275267164    1.17666349019137   -0.43243198365281
C        -2.16915040941057   -0.03545880815674    0.03657563678485
C        -3.51111715089146   -0.62537548254594    0.06620414112489
O        -3.66471661193361   -1.82493198209789    0.20877850303929
C        -4.64890634854482    0.36345682985061   -0.04254093554255
C        -6.01104700028010   -0.31893647687385   -0.00005400228905
H         0.17075927476540    2.25821776939074   -0.59666258233287
H        -2.38267725537039    1.90670928056864   -0.88473344074828
H        -4.53442894337229    0.93400915724684   -0.96713285760507
H        -4.54567536735990    1.06441008025274    0.79159188171645
H        -6.12204276657476   -0.98651276159948   -0.85070442119418
H        -6.80583399016041    0.42069957636774   -0.02201033203630
H        -6.10226187754415   -0.91167866689095    0.90666480786655
17
 energy: -30.413237809987 gnorm: 0.011435190610 xtb: 6.4.1 (1a32961)
S        -0.83461544546153   -0.99829944186550    0.64947143361150
C         0.26743287451707    0.29965946447765    0.29099683912818
Cl        1.93188297297374    0.15568062280645    0.64336773174016
C        -0.35410262571750    1.38058912389972   -0.27020903512780
C        -1.74074215785353    1.18807851047421   -0.40015528130866
C        -2.16848259177078   -0.03607623747118    0.04588989187222
C        -3.50904260594716   -0.62499209161086    0.09129323115428
O        -3.66486499472866   -1.82037579866339    0.27712807465697
C        -4.64777723608411    0.35829287537599   -0.06076011517857
C        -6.01184915779218   -0.31949706145768   -0.01038070108389
H         0.16526019160432    2.27255248761564   -0.57125158868341
H        -2.39610847969172    1.93056518958091   -0.82372342721461
H        -4.52441841721007    0.89545813185762   -1.00549901492974
H        -4.55578839902913    1.08693542444085    0.75212871684006
H        -6.12625315177463   -0.99983608622144   -0.85154920242724
H        -6.80451291316703    0.42316823075304   -0.04552989613912
H        -6.10906786286712   -0.89798334399203    0.90587234308970
17
 energy: -30.413540701169 gnorm: 0.011077566325 xtb: 6.4.1 (1a32961)
S        -0.82354511311179   -1.01016745273060    0.61971946883215
C         0.27370897192139    0.29263518844914    0.26972513834471
Cl        1.94472476960792    0.12653624792020    0.57349873028415
C        -0.35598999553990    1.38848903639177   -0.25220778502857
C        -1.74627200986895    1.20080293831272   -0.36298369248471
C        -2.16705706553915   -0.03526537063402    0.05996470768298
C        -3.50548374579128   -0.61991191404472    0.12226231176682
O        -3.66751703156108   -1.80779150100141    0.34771477099995
C        -4.64718297861334    0.35394228368388   -0.08040725913270
C        -6.01111728477681   -0.32236101481310   -0.02177192749253
H         0.15943691001430    2.28724437528848   -0.54199125335429
H        -2.40671220783194    1.95326096838658   -0.75883760824487
H        -4.51473668279634    0.85360759644419   -1.04492159776387
H        -4.57015326612897    1.11295980785802    0.70636659677848
H        -6.12742544923224   -1.01863799267134   -0.85062271801467
H        -6.80265901166110    0.42197421083825   -0.07390317078122
H        -6.11506880909073   -0.88339740767806    0.90548528760825
17
 energy: -30.413824828446 gnorm: 0.009032474441 xtb: 6.4.1 (1a32961)
S        -0.81736574179259   -1.01787816958121    0.59103077834412
C         0.27532083230387    0.28204434842237    0.24508444741454
Cl        1.95349270378884    0.09202086899339    0.49712557002723
C        -0.35809230439709    1.39529920488136   -0.23388958151186
C        -1.74957904362512    1.21379697134921   -0.32508375450649
C        -2.16631825094731   -0.03133468202330    0.07714711379194
C        -3.50268722036808   -0.60955050383498    0.15017182486327
O        -3.67231886040878   -1.78739233069129    0.42071690600977
C        -4.64722823639740    0.35188545548692   -0.10186482366639
C        -6.00827478612614   -0.32814918255854   -0.03296881023544
H         0.15449696650186    2.30003965287511   -0.50890273110543
H        -2.41388454646319    1.97802548908578   -0.68851502657452
H        -4.50632159968508    0.81313115335934   -1.08288563003715
H        -4.58443444440474    1.14039309756331    0.65521207688168
H        -6.12213279661602   -1.04396549891217   -0.84583227707362
H        -6.80127261155659    0.41369018693340   -0.10596929118467
H        -6.11645005980647   -0.86813606134875    0.90651320856307
17
 energy: -30.413988051195 gnorm: 0.005416964959 xtb: 6.4.1 (1a32961)
S        -0.81566497321761   -1.02566332627553    0.56590008956585
C         0.27285424998173    0.27191995612082    0.22578539156468
Cl        1.95335959544466    0.07422812355929    0.45463511162334
C        -0.35929475310860    1.39655667942974   -0.22648952593187
C        -1.75088820491562    1.22288571859256   -0.29930372569973
C        -2.16694511213918   -0.02640412585221    0.09135509586264
C        -3.50351826554924   -0.59944326373153    0.17012216741512
O        -3.67619329605738   -1.76876485707264    0.46124070696996
C        -4.64786333104675    0.35293590549076   -0.11435038373856
C        -6.00562540909841   -0.33286610378597   -0.03976408410425
H         0.15294993290642    2.30331299818737   -0.49093576336072
H        -2.41687996230641    1.99464367912377   -0.63976555039757
H        -4.49898977686471    0.79038772496450   -1.10317988163748
H        -4.59371694421467    1.15810430444366    0.62250356319268
H        -6.11029554027340   -1.06533975522356   -0.83841152455610
H        -6.80229630241262    0.40255476061999   -0.13125013174472
H        -6.11404190712825   -0.85512841859104    0.90899844497681
17
 energy: -30.414060705861 gnorm: 0.007408763999 xtb: 6.4.1 (1a32961)
S        -0.81444151460470   -1.03947800844913    0.53100966747433
C         0.27159359838015    0.25852617828719    0.19957525166520
Cl        1.95725363151810    0.05093136022641    0.39405431424390
C        -0.36252418878195    1.40043833066801   -0.21329788099074
C        -1.75369385119479    1.23536525496229   -0.26502801695934
C        -2.16880522643224   -0.02074041152519    0.10652578056020
C        -3.50658244381924   -0.59044123988210    0.19319979273667
O        -3.67851147701679   -1.75168043301693    0.52845620418277
C        -4.64798476199415    0.35344482078307   -0.13270775146949
C        -6.00307762376002   -0.33762778389073   -0.04957935779721
H         0.14930732365846    2.31022525440188   -0.46411280076482
H        -2.42350008062981    2.02037650367205   -0.57009787303324
H        -4.48806351803900    0.75852625569251   -1.13465958144553
H        -4.60284959811644    1.18370986810679    0.57741847974073
H        -6.09528537695908   -1.09127693941329   -0.82960803137987
H        -6.80333164550452    0.38990731838045   -0.16541347094173
H        -6.11255324670405   -0.83628632900332    0.91135527417825
17
 energy: -30.414116092920 gnorm: 0.003378984997 xtb: 6.4.1 (1a32961)
S        -0.81987525449399   -1.03813788759825    0.52644617949628
C         0.26863826140124    0.25613183802297    0.19484073391414
Cl        1.95614114267149    0.04839491944009    0.38257099617867
C        -0.36154777150998    1.39975523466170   -0.21322291609814
C        -1.75270820512526    1.23890225425304   -0.25751511640630
C        -2.17027630441783   -0.01711635165748    0.11003034949817
C        -3.50943341936169   -0.58689974209930    0.19573805517199
O        -3.67884666519613   -1.74528031872641    0.53023258602029
C        -4.64849669507552    0.35307293332960   -0.13305506353493
C        -6.00308141403353   -0.33953449828781   -0.05094515276343
H         0.15396570515025    2.30653154510825   -0.46392080395866
H        -2.42147227833708    2.02512580159490   -0.55485863932003
H        -4.48489888836282    0.75459309558518   -1.13363831336923
H        -4.60468762963898    1.18475385133892    0.57210690235301
H        -6.08590669193275   -1.10126099466619   -0.82297444501982
H        -6.80534732756565    0.38272772449288   -0.17900728475940
H        -6.11521656417180   -0.82783940479211    0.91426193259751
17
 energy: -30.414136635202 gnorm: 0.004244409305 xtb: 6.4.1 (1a32961)
S        -0.81914574432062   -1.04319811556970    0.51348357545804
C         0.27052668706459    0.25214106019019    0.18406086209215
Cl        1.95962812062694    0.04188735503480    0.35988307097404
C        -0.36111954560819    1.40088016924188   -0.20963613965768
C        -1.75376893728334    1.24386873634355   -0.24395219140231
C        -2.17052607609892   -0.01494190898264    0.11537305592368
C        -3.51053038311046   -0.58447055983470    0.20761215387921
O        -3.67795396422550   -1.74000463757939    0.54800862381043
C        -4.64882065956764    0.35125116694112   -0.13729133578431
C        -6.00378565401205   -0.34091616840372   -0.05493836749474
H         0.15509219046040    2.30921262556114   -0.45586130367028
H        -2.42434179884791    2.03475022147773   -0.52695247605093
H        -4.47984277050270    0.74141677783943   -1.14285022048191
H        -4.61006816635203    1.19232385242185    0.55883617310730
H        -6.08022961469733   -1.11387738866852   -0.81699307481287
H        -6.80594437378413    0.37894821913235   -0.19884618561054
H        -6.12221930974114   -0.81535140514542    0.91715377972081
17
 energy: -30.414157460781 gnorm: 0.002160781352 xtb: 6.4.1 (1a32961)
S        -0.81992202717423   -1.04504425935805    0.50620153882692
C         0.27179154952271    0.25165554052442    0.17899203401824
Cl        1.96108545818088    0.03866176836668    0.34846261769826
C        -0.36006818533978    1.40234786247893   -0.20690528163204
C        -1.75320544766929    1.24620206348211   -0.23922317293752
C        -2.17032673559373   -0.01322698569539    0.11582222275367
C        -3.51088051374166   -0.58356575377847    0.21102928595016
O        -3.67662100610161   -1.73867072417939    0.55713477658680
C        -4.64902550964577    0.34927744933606   -0.13802035184596
C        -6.00469001043690   -0.34172393382966   -0.05660914825325
H         0.15734557388396    2.31145911840430   -0.45082555160058
H        -2.42356360570144    2.03880302621580   -0.51514556179290
H        -4.47874320026740    0.73630520686766   -1.14406705608691
H        -4.61221433716341    1.19242794332037    0.55512532866228
H        -6.07758188529807   -1.12185900649516   -0.81113995596204
H        -6.80539095047146    0.37687464153630   -0.21306179347844
H        -6.13103916698282   -0.80600395719652    0.91932006909341
17
 energy: -30.414172714784 gnorm: 0.001807706923 xtb: 6.4.1 (1a32961)
S        -0.82048141255602   -1.04625965914623    0.50001887189675
C         0.27320537529721    0.25169673045078    0.17449720579667
Cl        1.96182230329289    0.03519761038050    0.33856285607823
C        -0.35926913795591    1.40369710362990   -0.20380563142210
C        -1.75299459194933    1.24816906219462   -0.23531838389476
C        -2.16993249209450   -0.01209834674472    0.11559590865137
C        -3.51062126387275   -0.58292163975839    0.21247916259864
O        -3.67523552663512   -1.73803857818078    0.56054483740680
C        -4.64914325514200    0.34784275761486   -0.13734313302094
C        -6.00518061742040   -0.34255472962244   -0.05745721719915
H         0.15866656730394    2.31298696994609   -0.44661413061803
H        -2.42307699588057    2.04265686669727   -0.50503385438806
H        -4.47843915920728    0.73326004098691   -1.14374941259147
H        -4.61406372521145    1.19183799148731    0.55450155374903
H        -6.07301622715749   -1.13270474882967   -0.80209853424377
H        -6.80378186762303    0.37469221051417   -0.23105143460032
H        -6.14150797318823   -0.79353964162021    0.92336133580121
17
 energy: -30.414187135534 gnorm: 0.002397595146 xtb: 6.4.1 (1a32961)
S        -0.81992033769497   -1.04795296060375    0.49335953648168
C         0.27435968887878    0.25186952952937    0.17036955170379
Cl        1.96197750837916    0.03068240457647    0.32738488581387
C        -0.35932962693247    1.40496115698868   -0.19976101173169
C        -1.75354387211520    1.24980620939262   -0.23038335154287
C        -2.16957780618948   -0.01174452880182    0.11633815029655
C        -3.50984316613905   -0.58263776054528    0.21291532836228
O        -3.67428438984966   -1.73832707189584    0.56017924548257
C        -4.64924724512691    0.34770871571383   -0.13638102772990
C        -6.00504680576177   -0.34308041043363   -0.05783302414363
H         0.15749235873678    2.31499717792183   -0.44132975127413
H        -2.42284905344475    2.04509147857461   -0.49650587355177
H        -4.47872629735711    0.73314446366630   -1.14283593777093
H        -4.61563331082761    1.19154837566601    0.55552231513473
H        -6.06460989437556   -1.14634784670476   -0.78892556624544
H        -6.80164425351531    0.37048917227420   -0.25389319740746
H        -6.15262349666493   -0.77628810531888    0.92886972812244
17
 energy: -30.414198358118 gnorm: 0.002037293869 xtb: 6.4.1 (1a32961)
S        -0.81935733872183   -1.04919339960604    0.48918303162823
C         0.27433569376102    0.25072782685163    0.16698640536745
Cl        1.96164051837401    0.02778888465807    0.31904226195072
C        -0.35990215084591    1.40507883528616   -0.19785345585582
C        -1.75404868986305    1.25021196066888   -0.22651543707244
C        -2.16954899080918   -0.01244821805434    0.11728898612527
C        -3.50969859083670   -0.58255590609878    0.21313572764647
O        -3.67541163428059   -1.73832617927169    0.55925413836521
C        -4.64904140820760    0.34854075168624   -0.13659234663878
C        -6.00431696557845   -0.34325042110678   -0.05828545116037
H         0.15532965914876    2.31665088267600   -0.43677728651832
H        -2.42420690302071    2.04792944988361   -0.48773100430846
H        -4.47801407847468    0.73345552042822   -1.14336033371429
H        -4.61571831014344    1.19281137783245    0.55484516542996
H        -6.05656065941185   -1.15696487712006   -0.77862392726130
H        -6.80053024946185    0.36610645603834   -0.27026835562766
H        -6.15799990162801   -0.76264294475194    0.93336188164424
17
 energy: -30.414210901818 gnorm: 0.001870570350 xtb: 6.4.1 (1a32961)
S        -0.81738534472981   -1.05212764527141    0.48151401301160
C         0.27392226666667    0.24930131841498    0.16300857297680
Cl        1.96177108073704    0.02336908363448    0.30350590044360
C        -0.36177765520208    1.40629457223811   -0.19286324469335
C        -1.75563707017623    1.25141945227836   -0.21761019228577
C        -2.16995508893694   -0.01369503846805    0.12041948218471
C        -3.50967929783991   -0.58322345835431    0.21212237654244
O        -3.67789511296432   -1.74008008425390    0.55157955940533
C        -4.64866623238771    0.35057110576569   -0.13642983457753
C        -6.00304657124886   -0.34287103543197   -0.05868444715619
H         0.15063058083785    2.31975213272330   -0.42879899943521
H        -2.42575710787035    2.04902509318479   -0.47709859471696
H        -4.47686899502553    0.73643440823618   -1.14325343885198
H        -4.61497307492666    1.19440234677828    0.55588892062698
H        -6.04047079402036   -1.17711663591926   -0.75656334216412
H        -6.79855133070665    0.35700365214592   -0.30186113069296
H        -6.16871025220621   -0.73453926770124    0.94221439938272
17
 energy: -30.414210566201 gnorm: 0.002169852091 xtb: 6.4.1 (1a32961)
S        -0.81695500710909   -1.05091949498574    0.48568419100058
C         0.27364786607914    0.25051396294325    0.16670364027327
Cl        1.96136218897305    0.02872529226609    0.31206665585996
C        -0.36153640405488    1.40520499945144   -0.19558452225780
C        -1.75521415088634    1.24922459985552   -0.22169485914399
C        -2.16977613568916   -0.01502013643473    0.11842698872579
C        -3.50956991155832   -0.58523618970629    0.20843652531200
O        -3.67806845288286   -1.74387724440924    0.54235695025255
C        -4.64832035658754    0.35061977361360   -0.13513604090466
C        -6.00326166919844   -0.34165438892134   -0.05721196217969
H         0.15114804674302    2.31850324071778   -0.43200755251597
H        -2.42634157093153    2.04629394551774   -0.48363486211189
H        -4.47814622534818    0.74042395693268   -1.14060111811471
H        -4.61246987664024    1.19171024615620    0.56057493410016
H        -6.04279111298873   -1.17250903511881   -0.75542297609683
H        -6.79795231549227    0.35768330081906   -0.29683982776890
H        -6.16880491242768   -0.73576682869725    0.94097383557022
17
 energy: -30.414215741427 gnorm: 0.000988359994 xtb: 6.4.1 (1a32961)
S        -0.81699945963401   -1.05221820332808    0.48161975496586
C         0.27370408676147    0.24934334219727    0.16407348090837
Cl        1.96234780900210    0.02732518563797    0.30543509259048
C        -0.36150126409815    1.40589028032957   -0.19410003054861
C        -1.75526925895062    1.25075404234419   -0.21782185875008
C        -2.16990140076044   -0.01428940385661    0.11934166862266
C        -3.50995017113650   -0.58475730245695    0.20980532327966
O        -3.67792039513025   -1.74309333585996    0.54564246453535
C        -4.64828084606151    0.34982708874398   -0.13647229998420
C        -6.00351017335213   -0.34189319324762   -0.05790868261073
H         0.15207544701666    2.31923789378037   -0.42891580983955
H        -2.42704199099668    2.04908154447651   -0.47537926316759
H        -4.47725759918270    0.73685334358891   -1.14272429441919
H        -4.61304629750149    1.19285075806245    0.55691300429759
H        -6.04062888757961   -1.17810056777604   -0.75105320931014
H        -6.79790139641241    0.35667960913587   -0.30483522170803
H        -6.17196820198377   -0.72957108177187    0.94346988113824
17
 energy: -30.414216868341 gnorm: 0.000895115253 xtb: 6.4.1 (1a32961)
S        -0.81718623169320   -1.05268356728594    0.48009087238625
C         0.27354613066412    0.24873244363287    0.16342980823654
Cl        1.96281094014629    0.02702777291389    0.30390449670328
C        -0.36185809833165    1.40689263374085   -0.19235763426609
C        -1.75533144524287    1.25161543546971   -0.21643672882055
C        -2.17004438409359   -0.01380089449468    0.11925710376531
C        -3.51006833050907   -0.58475402464103    0.20901847434405
O        -3.67735718865539   -1.74349517718948    0.54355687619254
C        -4.64830436606353    0.34946462516012   -0.13700114027206
C        -6.00378933501757   -0.34172800469547   -0.05741613826207
H         0.15276046320069    2.31986239293581   -0.42652456103975
H        -2.42657761180934    2.04883577217115   -0.47443760235552
H        -4.47766573877597    0.73486003834955   -1.14407476068749
H        -4.61259696077257    1.19344091108823    0.55532203944637
H        -6.04074007989709   -1.18132235642555   -0.74780282039895
H        -6.79782180893444    0.35686871314937   -0.30726930928368
H        -6.17282595421486   -0.72589671387944    0.94583102431190
17
 energy: -30.414217887090 gnorm: 0.000395906406 xtb: 6.4.1 (1a32961)
S        -0.81697654905488   -1.05274639501720    0.48007716582298
C         0.27336504862996    0.24928695153425    0.16459016309976
Cl        1.96259471575678    0.02790728158985    0.30608400381397
C        -0.36171233436842    1.40652846715361   -0.19286943399855
C        -1.75533249776997    1.25147086891849   -0.21706423303306
C        -2.16995137372429   -0.01407441090457    0.11852147682145
C        -3.50984584671862   -0.58521822957679    0.20786766036813
O        -3.67694979150304   -1.74442880420338    0.54122183461522
C        -4.64827536917808    0.34931297751475   -0.13724774570015
C        -6.00390145529053   -0.34148360067003   -0.05659155107276
H         0.15302832651934    2.31943812951158   -0.42683171470948
H        -2.42682399382590    2.04898006862249   -0.47484193390263
H        -4.47837307525777    0.73479534451518   -1.14438483385370
H        -4.61193943388229    1.19319138204472    0.55510532966058
H        -6.04156501968667   -1.18086075784399   -0.74699998481180
H        -6.79781594717372    0.35738129246114   -0.30620374820104
H        -6.17257540347195   -0.72556056565015    0.94665754508118
17
 energy: -30.414218713377 gnorm: 0.000158463353 xtb: 6.4.1 (1a32961)
S        -0.81689967945872   -1.05272681187229    0.47957749893763
C         0.27355966657850    0.24917173190444    0.16407398874544
Cl        1.96269880533863    0.02820666469537    0.30762618089370
C        -0.36171834642177    1.40663648422880   -0.19234002075095
C        -1.75532754342084    1.25123118415950   -0.21755897393372
C        -2.16989149722212   -0.01432451375186    0.11769644338690
C        -3.50973861417211   -0.58546898864572    0.20700083189047
O        -3.67683889573262   -1.74493293285388    0.53975410216292
C        -4.64826870232776    0.34918757830832   -0.13792623808773
C        -6.00393865870021   -0.34124188016445   -0.05572649364367
H         0.15281954783530    2.31988194374845   -0.42530468110923
H        -2.42691045999205    2.04898737909516   -0.47461087360032
H        -4.47893533293051    0.73351562025495   -1.14550434339926
H        -4.61132173281352    1.19373341516811    0.55331979395218
H        -6.04238838718534   -1.18073221120288   -0.74557648750864
H        -6.79799300536909    0.35733277283063   -0.30502408256995
H        -6.17195716400582   -0.72453743590268    0.94761335463436
