      -----------------------------------------------------------      
     |                   =====================                   |     
     |                           x T B                           |     
     |                   =====================                   |     
     |                         S. Grimme                         |     
     |          Mulliken Center for Theoretical Chemistry        |     
     |                    University of Bonn                     |     
      -----------------------------------------------------------      

   * xtb version 6.4.0 (f63f532) compiled by 'knkr256@seskscpg008.prim.scp' on 2021-04-09

   xtb is free software: you can redistribute it and/or modify it under
   the terms of the GNU Lesser General Public License as published by
   the Free Software Foundation, either version 3 of the License, or
   (at your option) any later version.
   
   xtb is distributed in the hope that it will be useful,
   but WITHOUT ANY WARRANTY; without even the implied warranty of
   MERCHANTABILITY or FITNESS FOR A PARTICULAR PURPOSE.  See the
   GNU Lesser General Public License for more details.
   
   Cite this work as:
   * C. Bannwarth, E. Caldeweyher, S. Ehlert, A. Hansen, P. Pracht,
     J. Seibert, S. Spicher, S. Grimme, WIREs Comput. Mol. Sci., 2020, 11,
     e01493. DOI: 10.1002/wcms.1493
   
   for GFN2-xTB:
   * C. Bannwarth, S. Ehlert and S. Grimme., J. Chem. Theory Comput., 2019,
     15, 1652-1671. DOI: 10.1021/acs.jctc.8b01176
   for GFN1-xTB:
   * S. Grimme, C. Bannwarth, P. Shushkov, J. Chem. Theory Comput., 2017,
     13, 1989-2009. DOI: 10.1021/acs.jctc.7b00118
   for GFN0-xTB:
   * P. Pracht, E. Caldeweyher, S. Ehlert, S. Grimme, ChemRxiv, 2019, preprint.
     DOI: 10.26434/chemrxiv.8326202.v1
   for GFN-FF:
   * S. Spicher and S. Grimme, Angew. Chem. Int. Ed., 2020, 59, 15665-15673.
     DOI: 10.1002/anie.202004239
   
   for DFT-D4:
   * E. Caldeweyher, C. Bannwarth and S. Grimme, J. Chem. Phys., 2017,
     147, 034112. DOI: 10.1063/1.4993215
   * E. Caldeweyher, S. Ehlert, A. Hansen, H. Neugebauer, S. Spicher,
     C. Bannwarth and S. Grimme, J. Chem. Phys., 2019, 150, 154122.
     DOI: 10.1063/1.5090222
   * E. Caldeweyher, J.-M. Mewes, S. Ehlert and S. Grimme, Phys. Chem. Chem. Phys.
     2020, 22, 8499-8512. DOI: 10.1039/D0CP00502A
   
   for sTDA-xTB:
   * S. Grimme and C. Bannwarth, J. Chem. Phys., 2016, 145, 054103.
     DOI: 10.1063/1.4959605
   
   in the mass-spec context:
   * V. Asgeirsson, C. Bauer and S. Grimme, Chem. Sci., 2017, 8, 4879.
     DOI: 10.1039/c7sc00601b
   * J. Koopman and S. Grimme, ACS Omega 2019, 4, 12, 15120-15133.
     DOI: 10.1021/acsomega.9b02011
   
   for metadynamics refer to:
   * S. Grimme, J. Chem. Theory Comput., 2019, 155, 2847-2862
     DOI: 10.1021/acs.jctc.9b00143
   
   for SPH calculations refer to:
   * S. Spicher and S. Grimme, J. Chem. Theory Comput., 2021, 17, 1701-1714
     DOI: 10.1021/acs.jctc.0c01306
   
   with help from (in alphabetical order)
   P. Atkinson, C. Bannwarth, F. Bohle, G. Brandenburg, E. Caldeweyher
   M. Checinski, S. Dohm, S. Ehlert, S. Ehrlich, I. Gerasimov, J. Koopman
   C. Lavinge, S. Lehtola, F. März, M. Müller, F. Musil, H. Neugebauer
   J. Pisarek, P. Pracht, J. Seibert, P. Shushkov, S. Spicher, M. Stahn
   T. Strunk, J. Stückrath, T. Rose, and J. Unsleber
   
 * started run on 2021/10/08 at 07:23:19.462     

           -------------------------------------------------
          |                Calculation Setup                |
           -------------------------------------------------

          program call               : xtb xtbopt.xyz --sp --alpb thf -P 6
          hostname                   : seskscpg010.prim.scp
          coordinate file            : xtbopt.xyz
          omp threads                :                     6
          number of atoms            :                   111
          number of electrons        :                   290
          charge                     :                     0
          spin                       :                   0.0
          first test random number   :      0.39851120806926

   ID    Z sym.   atoms
    1    7 N      1, 11, 103
    2    6 C      2-6, 10, 12-15, 23, 24, 28, 32, 34, 38, 44, 45, 49, 53, 55,
                  59, 65, 66, 70, 74, 76, 80, 86-89, 91, 93, 96, 97, 100,
                  104-106, 108
    3    1 H      7-9, 16-18, 20, 25-27, 29-31, 35-37, 39-41, 46-48, 50-52,
                  56-58, 60-62, 67-69, 71-73, 77-79, 81-85, 90, 92, 94, 95,
                  98, 99, 101, 102, 107, 109-111
    4   77 Ir     19
    5    5 B      21, 42, 63
    6    8 O      22, 33, 43, 54, 64, 75

molecular fragmentation (1/2 indicates fragments):
111111111111111111111111111111111111111111111111111111111111111111111111
111111111111122222222222222222222222222
# atoms in fragment 1/2:    85    26
 fragment masses (1/2) :      730.32      182.24
CMA distance (Bohr)    :  14.758
constraining FC (au)   :  0.0500

           -------------------------------------------------
          |                 G F N 2 - x T B                 |
           -------------------------------------------------

        Reference                      10.1021/acs.jctc.8b01176
      * Hamiltonian:
        H0-scaling (s, p, d)           1.850000    2.230000    2.230000
        zeta-weighting                 0.500000
      * Dispersion:
        s8                             2.700000
        a1                             0.520000
        a2                             5.000000
        s9                             5.000000
      * Repulsion:
        kExp                           1.500000    1.000000
        rExp                           1.000000
      * Coulomb:
        alpha                          2.000000
        third order                    shell-resolved
        anisotropic                    true
        a3                             3.000000
        a5                             4.000000
        cn-shift                       1.200000
        cn-exp                         4.000000
        max-rad                        5.000000

      * Solvation model:               ALPB
        Solvent                        thf
        Parameter file                 internal GFN2-xTB/ALPB
        Dielectric constant                7.6000E+00
        Reference state                gsolv [1 M gas/solution]
        Free energy shift                  5.3248E-03 Eh       3.3414E+00 kcal/mol
        Temperature                        2.9815E+02 K
        Density                            8.8300E-01 kg/L
        Solvent mass                       7.2106E+01 g/mol
        Interaction kernel             P16
        Born radius scaling (c1)           1.7311E+00
        Born radii integrator          GBOBC
        Born offset                        0.0000E+00 a0       0.0000E+00 AA
        H-bond correction              true
        Ion screening                  false
        Surface tension                    1.0000E-05 Eh       1.5569E+01 dyn/cm
        Grid points                               230 per atom
q/qsh data taken from xtbrestart
CAMM data taken from xtbrestart

          ...................................................
          :                      SETUP                      :
          :.................................................:
          :  # basis functions                 279          :
          :  # atomic orbitals                 278          :
          :  # shells                          166          :
          :  # electrons                       290          :
          :  max. iterations                   250          :
          :  Hamiltonian                  GFN2-xTB          :
          :  restarted?                       true          :
          :  GBSA solvation                   true          :
          :  PC potential                    false          :
          :  electronic temp.          300.0000000     K    :
          :  accuracy                    1.0000000          :
          :  -> integral cutoff          0.2500000E+02      :
          :  -> integral neglect         0.1000000E-07      :
          :  -> SCF convergence          0.1000000E-05 Eh   :
          :  -> wf. convergence          0.1000000E-03 e    :
          :  Broyden damping             0.4000000          :
          ...................................................

 iter      E             dE          RMSdq      gap      omega  full diag
   1   -160.0660721 -0.160066E+03  0.422E-05    0.90       0.0  T
   2   -160.0660721  0.442810E-10  0.406E-05    0.90     233.5  T
   3   -160.0660721 -0.179625E-10  0.326E-05    0.90     291.3  T

   *** convergence criteria satisfied after 3 iterations ***

         #    Occupation            Energy/Eh            Energy/eV
      -------------------------------------------------------------
         1        2.0000           -0.6736631             -18.3313
       ...           ...                  ...                  ...
       139        2.0000           -0.3618630              -9.8468
       140        2.0000           -0.3432584              -9.3405
       141        2.0000           -0.3294992              -8.9661
       142        2.0000           -0.3197002              -8.6995
       143        2.0000           -0.3161329              -8.6024
       144        2.0000           -0.3087252              -8.4008
       145        2.0000           -0.3061494              -8.3307 (HOMO)
       146                         -0.2732364              -7.4351 (LUMO)
       147                         -0.2456139              -6.6835
       148                         -0.2430233              -6.6130
       149                         -0.2419421              -6.5836
       150                         -0.2302954              -6.2667
       ...                                ...                  ...
       278                          3.7014930             100.7228
      -------------------------------------------------------------
                  HL-Gap            0.0329130 Eh            0.8956 eV
             Fermi-level           -0.2896623 Eh           -7.8821 eV

 SCC (total)                   0 d,  0 h,  0 min,  0.120 sec
 SCC setup                      ...        0 min,  0.002 sec (  1.974%)
 Dispersion                     ...        0 min,  0.003 sec (  2.271%)
 classical contributions        ...        0 min,  0.000 sec (  0.145%)
 integral evaluation            ...        0 min,  0.034 sec ( 28.008%)
 iterations                     ...        0 min,  0.036 sec ( 29.845%)
 molecular gradient             ...        0 min,  0.045 sec ( 37.122%)
 printout                       ...        0 min,  0.001 sec (  0.578%)

         :::::::::::::::::::::::::::::::::::::::::::::::::::::
         ::                     SUMMARY                     ::
         :::::::::::::::::::::::::::::::::::::::::::::::::::::
         :: total energy            -157.922200655579 Eh    ::
         :: total w/o Gsasa/hb      -157.874442572633 Eh    ::
         :: gradient norm              0.032628976488 Eh/a0 ::
         :: HOMO-LUMO gap              0.895608364095 eV    ::
         ::.................................................::
         :: SCC energy              -160.066072060152 Eh    ::
         :: -> isotropic ES            0.243751911878 Eh    ::
         :: -> anisotropic ES          0.017462441284 Eh    ::
         :: -> anisotropic XC          0.063892609147 Eh    ::
         :: -> dispersion             -0.149606775283 Eh    ::
         :: -> Gsolv                  -0.057454628967 Eh    ::
         ::    -> Gelec               -0.009696546021 Eh    ::
         ::    -> Gsasa               -0.050421727276 Eh    ::
         ::    -> Ghb                 -0.002661171114 Eh    ::
         ::    -> Gshift               0.005324815444 Eh    ::
         :: repulsion energy           2.136462885240 Eh    ::
         :: add. restraining           0.000000000000 Eh    ::
         :: total charge               0.000000000001 e     ::
         :::::::::::::::::::::::::::::::::::::::::::::::::::::

           -------------------------------------------------
          |                Property Printout                |
           -------------------------------------------------

    * Orbital Energies and Occupations

         #    Occupation            Energy/Eh            Energy/eV
      -------------------------------------------------------------
         1        2.0000           -0.6736631             -18.3313
       ...           ...                  ...                  ...
       133        2.0000           -0.3862244             -10.5097
       134        2.0000           -0.3856865             -10.4951
       135        2.0000           -0.3841645             -10.4536
       136        2.0000           -0.3807473             -10.3607
       137        2.0000           -0.3801232             -10.3437
       138        2.0000           -0.3749858             -10.2039
       139        2.0000           -0.3618630              -9.8468
       140        2.0000           -0.3432584              -9.3405
       141        2.0000           -0.3294992              -8.9661
       142        2.0000           -0.3197002              -8.6995
       143        2.0000           -0.3161329              -8.6024
       144        2.0000           -0.3087252              -8.4008
       145        2.0000           -0.3061494              -8.3307 (HOMO)
       146                         -0.2732364              -7.4351 (LUMO)
       147                         -0.2456139              -6.6835
       148                         -0.2430233              -6.6130
       149                         -0.2419421              -6.5836
       150                         -0.2302954              -6.2667
       151                         -0.2093859              -5.6977
       152                         -0.2033128              -5.5324
       153                         -0.2015745              -5.4851
       154                         -0.1815365              -4.9399
       155                         -0.1453007              -3.9538
       156                         -0.1245406              -3.3889
       ...                                ...                  ...
       278                          3.7014930             100.7228
      -------------------------------------------------------------
                  HL-Gap            0.0329130 Eh            0.8956 eV
             Fermi-level           -0.2896623 Eh           -7.8821 eV

     #   Z          covCN         q      C6AA      α(0)
     1   7 N        2.554    -0.122    23.685     7.228
     2   6 C        2.956     0.077    26.285     8.409
     3   6 C        2.918    -0.042    29.055     8.839
     4   6 C        2.923    -0.023    28.586     8.768
     5   6 C        2.915    -0.044    29.099     8.846
     6   6 C        2.892     0.048    26.921     8.507
     7   1 H        0.926     0.051     2.307     2.375
     8   1 H        0.926     0.053     2.277     2.360
     9   1 H        0.926     0.044     2.393     2.419
    10   6 C        2.954     0.073    26.362     8.421
    11   7 N        2.569    -0.123    23.704     7.231
    12   6 C        2.890     0.042    27.050     8.527
    13   6 C        2.915    -0.046    29.134     8.851
    14   6 C        2.922    -0.025    28.620     8.773
    15   6 C        2.918    -0.045    29.128     8.850
    16   1 H        0.926     0.044     2.401     2.423
    17   1 H        0.926     0.050     2.326     2.385
    18   1 H        0.926     0.075     2.034     2.230
    19  77 Ir       5.958    -0.158   388.509    36.450
    20   1 H        0.977     0.081     1.961     2.188
    21   5 B        2.623     0.401    16.080     6.782
    22   8 O        1.638    -0.413    21.121     6.204
    23   6 C        3.835     0.131    18.435     6.108
    24   6 C        3.755    -0.121    22.865     6.818
    25   1 H        0.925     0.053     2.285     2.364
    26   1 H        0.925     0.044     2.395     2.420
    27   1 H        0.925     0.050     2.324     2.384
    28   6 C        3.754    -0.108    22.617     6.781
    29   1 H        0.925     0.046     2.367     2.406
    30   1 H        0.925     0.040     2.451     2.448
    31   1 H        0.925     0.028     2.612     2.527
    32   6 C        3.838     0.131    18.433     6.108
    33   8 O        1.637    -0.404    20.927     6.175
    34   6 C        3.755    -0.118    22.819     6.811
    35   1 H        0.925     0.046     2.370     2.407
    36   1 H        0.925     0.046     2.371     2.408
    37   1 H        0.925     0.049     2.328     2.386
    38   6 C        3.754    -0.119    22.830     6.813
    39   1 H        0.925     0.047     2.359     2.402
    40   1 H        0.925     0.052     2.292     2.368
    41   1 H        0.925     0.044     2.394     2.420
    42   5 B        2.623     0.405    16.030     6.771
    43   8 O        1.637    -0.381    20.491     6.110
    44   6 C        3.835     0.128    18.477     6.116
    45   6 C        3.755    -0.126    22.981     6.836
    46   1 H        0.925     0.055     2.253     2.347
    47   1 H        0.925     0.057     2.239     2.340
    48   1 H        0.925     0.049     2.333     2.388
    49   6 C        3.755    -0.121    22.884     6.821
    50   1 H        0.925     0.048     2.347     2.396
    51   1 H        0.925     0.045     2.390     2.417
    52   1 H        0.925     0.053     2.287     2.365
    53   6 C        3.832     0.128    18.488     6.118
    54   8 O        1.637    -0.384    20.542     6.118
    55   6 C        3.755    -0.123    22.920     6.826
    56   1 H        0.925     0.052     2.290     2.367
    57   1 H        0.925     0.054     2.276     2.359
    58   1 H        0.925     0.048     2.349     2.397
    59   6 C        3.755    -0.124    22.935     6.829
    60   1 H        0.925     0.046     2.370     2.407
    61   1 H        0.925     0.052     2.294     2.369
    62   1 H        0.925     0.050     2.314     2.379
    63   5 B        2.625     0.400    16.087     6.781
    64   8 O        1.637    -0.375    20.383     6.094
    65   6 C        3.833     0.125    18.527     6.124
    66   6 C        3.755    -0.129    23.039     6.844
    67   1 H        0.925     0.058     2.224     2.332
    68   1 H        0.925     0.055     2.262     2.352
    69   1 H        0.925     0.049     2.337     2.391
    70   6 C        3.755    -0.129    23.034     6.843
    71   1 H        0.925     0.061     2.190     2.314
    72   1 H        0.925     0.050     2.323     2.383
    73   1 H        0.925     0.052     2.297     2.370
    74   6 C        3.828     0.126    18.508     6.121
    75   8 O        1.637    -0.385    20.569     6.122
    76   6 C        3.755    -0.123    22.920     6.826
    77   1 H        0.925     0.050     2.321     2.382
    78   1 H        0.925     0.052     2.297     2.370
    79   1 H        0.925     0.054     2.273     2.358
    80   6 C        3.755    -0.122    22.901     6.824
    81   1 H        0.925     0.040     2.455     2.450
    82   1 H        0.925     0.051     2.310     2.377
    83   1 H        0.925     0.054     2.276     2.359
    84   1 H        0.926     0.050     2.316     2.380
    85   1 H        0.926     0.048     2.347     2.396
    86   6 C        2.829    -0.021    28.511     8.750
    87   6 C        2.923    -0.033    28.823     8.804
    88   6 C        2.921    -0.039    28.970     8.826
    89   6 C        2.923    -0.047    29.159     8.855
    90   1 H        0.925     0.020     2.739     2.588
    91   6 C        2.923    -0.043    29.058     8.840
    92   1 H        0.926     0.042     2.422     2.434
    93   6 C        2.970     0.003    27.950     8.672
    94   1 H        0.925     0.024     2.670     2.555
    95   1 H        0.925     0.034     2.526     2.485
    96   6 C        3.808    -0.059    21.623     6.619
    97   6 C        3.813    -0.070    21.836     6.651
    98   1 H        0.924     0.045     2.384     2.414
    99   1 H        0.924     0.037     2.489     2.467
   100   6 C        2.954     0.099    25.803     8.332
   101   1 H        0.924     0.045     2.381     2.413
   102   1 H        0.925     0.062     2.177     2.307
   103   7 N        1.842    -0.252    27.411     7.759
   104   6 C        2.918    -0.051    29.262     8.871
   105   6 C        2.905     0.054    26.785     8.486
   106   6 C        2.927    -0.018    28.448     8.747
   107   1 H        0.926     0.040     2.443     2.444
   108   6 C        2.914    -0.049    29.208     8.862
   109   1 H        0.925     0.039     2.464     2.455
   110   1 H        0.926     0.041     2.436     2.441
   111   1 H        0.926     0.041     2.441     2.443

 Mol. C6AA /au·bohr⁶  :     132771.801273
 Mol. C8AA /au·bohr⁸  :    3500252.266926
 Mol. α(0) /au        :        567.011525


Wiberg/Mayer (AO) data.
largest (>0.10) Wiberg bond orders for each atom

 ---------------------------------------------------------------------------
     #   Z sym  total        # sym  WBO       # sym  WBO       # sym  WBO
 ---------------------------------------------------------------------------
     1   7 N    3.401 --     6 C    1.384     2 C    1.305    19 Ir   0.451
     2   6 C    3.978 --     3 C    1.347     1 N    1.305    10 C    1.095
     3   6 C    3.988 --     4 C    1.485     2 C    1.347     9 H    0.962
                             6 C    0.106
     4   6 C    3.983 --     3 C    1.485     5 C    1.378    84 H    0.969
     5   6 C    3.980 --     6 C    1.464     4 C    1.378     8 H    0.969
     6   6 C    3.978 --     5 C    1.464     1 N    1.384     7 H    0.957
                             3 C    0.106
     7   1 H    0.997 --     6 C    0.957
     8   1 H    0.997 --     5 C    0.969
     9   1 H    0.998 --     3 C    0.962
    10   6 C    3.979 --    15 C    1.350    11 N    1.301     2 C    1.095
    11   7 N    3.414 --    12 C    1.384    10 C    1.301    19 Ir   0.446
    12   6 C    3.973 --    13 C    1.460    11 N    1.384    18 H    0.948
                            15 C    0.105
    13   6 C    3.982 --    12 C    1.460    14 C    1.380    17 H    0.969
    14   6 C    3.982 --    15 C    1.482    13 C    1.380    85 H    0.969
    15   6 C    3.989 --    14 C    1.482    10 C    1.350    16 H    0.962
                            12 C    0.105
    16   1 H    0.998 --    15 C    0.962
    17   1 H    0.997 --    13 C    0.969
    18   1 H    0.994 --    12 C    0.948
    19  77 Ir   5.213 --    63 B    0.872    42 B    0.854    21 B    0.713
                            86 C    0.603    20 H    0.537     1 N    0.451
                            11 N    0.446
    20   1 H    0.989 --    19 Ir   0.537    86 C    0.338
    21   5 B    3.261 --    33 O    1.110    22 O    1.085    19 Ir   0.713
    22   8 O    2.183 --    21 B    1.085    23 C    0.944
    23   6 C    3.945 --    24 C    0.997    28 C    0.990    22 O    0.944
                            32 C    0.941
    24   6 C    3.994 --    23 C    0.997    26 H    0.984    27 H    0.983
                            25 H    0.983
    25   1 H    0.997 --    24 C    0.983
    26   1 H    0.997 --    24 C    0.984
    27   1 H    0.997 --    24 C    0.983
    28   6 C    3.997 --    23 C    0.990    31 H    0.985    29 H    0.984
                            30 H    0.984
    29   1 H    0.997 --    28 C    0.984
    30   1 H    0.998 --    28 C    0.984
    31   1 H    0.999 --    28 C    0.985
    32   6 C    3.941 --    38 C    0.996    34 C    0.991    23 C    0.941
                            33 O    0.941
    33   8 O    2.202 --    21 B    1.110    32 C    0.941
    34   6 C    3.995 --    32 C    0.991    36 H    0.984    35 H    0.984
                            37 H    0.983
    35   1 H    0.998 --    34 C    0.984
    36   1 H    0.997 --    34 C    0.984
    37   1 H    0.997 --    34 C    0.983
    38   6 C    3.994 --    32 C    0.996    41 H    0.984    39 H    0.983
                            40 H    0.983
    39   1 H    0.998 --    38 C    0.983
    40   1 H    0.997 --    38 C    0.983
    41   1 H    0.997 --    38 C    0.984
    42   5 B    3.335 --    43 O    1.119    54 O    1.105    19 Ir   0.854
    43   8 O    2.228 --    42 B    1.119    44 C    0.937
    44   6 C    3.936 --    45 C    0.996    49 C    0.991    53 C    0.938
                            43 O    0.937
    45   6 C    3.993 --    44 C    0.996    48 H    0.983    46 H    0.982
                            47 H    0.982
    46   1 H    0.997 --    45 C    0.982
    47   1 H    0.997 --    45 C    0.982
    48   1 H    0.996 --    45 C    0.983
    49   6 C    3.994 --    44 C    0.991    50 H    0.983    51 H    0.983
                            52 H    0.979
    50   1 H    0.997 --    49 C    0.983
    51   1 H    0.998 --    49 C    0.983
    52   1 H    0.997 --    49 C    0.979
    53   6 C    3.938 --    55 C    0.996    59 C    0.991    44 C    0.938
                            54 O    0.936
    54   8 O    2.224 --    42 B    1.105    53 C    0.936
    55   6 C    3.993 --    53 C    0.996    58 H    0.983    57 H    0.983
                            56 H    0.983
    56   1 H    0.997 --    55 C    0.983
    57   1 H    0.997 --    55 C    0.983
    58   1 H    0.996 --    55 C    0.983
    59   6 C    3.994 --    53 C    0.991    61 H    0.983    62 H    0.983
                            60 H    0.982
    60   1 H    0.998 --    59 C    0.982
    61   1 H    0.996 --    59 C    0.983
    62   1 H    0.997 --    59 C    0.983
    63   5 B    3.356 --    64 O    1.116    75 O    1.111    19 Ir   0.872
    64   8 O    2.232 --    63 B    1.116    65 C    0.940
    65   6 C    3.938 --    70 C    0.996    66 C    0.991    64 O    0.940
                            74 C    0.937
    66   6 C    3.992 --    65 C    0.991    69 H    0.983    68 H    0.982
                            67 H    0.979
    67   1 H    0.997 --    66 C    0.979
    68   1 H    0.997 --    66 C    0.982
    69   1 H    0.997 --    66 C    0.983
    70   6 C    3.992 --    65 C    0.996    72 H    0.984    73 H    0.982
                            71 H    0.982
    71   1 H    0.996 --    70 C    0.982
    72   1 H    0.996 --    70 C    0.984
    73   1 H    0.997 --    70 C    0.982
    74   6 C    3.936 --    76 C    0.996    80 C    0.991    75 O    0.938
                            65 C    0.937
    75   8 O    2.226 --    63 B    1.111    74 C    0.938
    76   6 C    3.993 --    74 C    0.996    77 H    0.983    78 H    0.983
                            79 H    0.982
    77   1 H    0.996 --    76 C    0.983
    78   1 H    0.997 --    76 C    0.983
    79   1 H    0.997 --    76 C    0.982
    80   6 C    3.995 --    74 C    0.991    81 H    0.983    83 H    0.983
                            82 H    0.983
    81   1 H    0.998 --    80 C    0.983
    82   1 H    0.997 --    80 C    0.983
    83   1 H    0.996 --    80 C    0.983
    84   1 H    0.997 --     4 C    0.969
    85   1 H    0.997 --    14 C    0.969
    86   6 C    3.952 --    87 C    1.390    88 C    1.373    19 Ir   0.603
                            20 H    0.338
    87   6 C    3.990 --    89 C    1.435    86 C    1.390    90 H    0.964
                            91 C    0.103
    88   6 C    3.988 --    91 C    1.459    86 C    1.373    92 H    0.960
                            89 C    0.105
    89   6 C    3.987 --    87 C    1.435    93 C    1.413    94 H    0.968
                            88 C    0.105
    90   1 H    0.999 --    87 C    0.964
    91   6 C    3.987 --    88 C    1.459    93 C    1.393    95 H    0.967
                            87 C    0.103
    92   1 H    0.997 --    88 C    0.960
    93   6 C    3.982 --    89 C    1.413    91 C    1.393    96 C    1.010
    94   1 H    0.999 --    89 C    0.968
    95   1 H    0.997 --    91 C    0.967
    96   6 C    3.994 --    93 C    1.010    99 H    0.975    98 H    0.973
                            97 C    0.965
    97   6 C    3.993 --   100 C    1.012   102 H    0.972   101 H    0.970
                            96 C    0.965
    98   1 H    0.997 --    96 C    0.973
    99   1 H    0.998 --    96 C    0.975
   100   6 C    3.976 --   103 N    1.410   104 C    1.387    97 C    1.012
                           108 C    0.111
   101   1 H    0.998 --    97 C    0.970
   102   1 H    0.996 --    97 C    0.972
   103   7 N    3.053 --   105 C    1.437   100 C    1.410
   104   6 C    3.990 --   106 C    1.458   100 C    1.387   107 H    0.969
                           105 C    0.115
   105   6 C    3.982 --   103 N    1.437   108 C    1.432   109 H    0.963
                           104 C    0.115
   106   6 C    3.990 --   104 C    1.458   108 C    1.430   110 H    0.970
   107   1 H    0.998 --   104 C    0.969
   108   6 C    3.990 --   105 C    1.432   106 C    1.430   111 H    0.970
                           100 C    0.111
   109   1 H    0.998 --   105 C    0.963
   110   1 H    0.998 --   106 C    0.970
   111   1 H    0.998 --   108 C    0.970
 ---------------------------------------------------------------------------

Topologies differ in total number of bonds
Writing topology from bond orders to xtbtopo.mol

molecular dipole:
                 x           y           z       tot (Debye)
 q only:       -0.209       0.345      -0.661
   full:       -1.731       0.489      -1.076       5.329
molecular quadrupole (traceless):
                xx          xy          yy          xz          yz          zz
 q only:       10.898       5.864      -2.107      -7.086      10.090      -8.791
  q+dip:       11.906      13.753      -8.430     -15.683       7.353      -3.476
   full:        7.257      13.140      -2.536     -17.895       5.563      -4.721


           -------------------------------------------------
          | TOTAL ENERGY             -157.922200655579 Eh   |
          | GRADIENT NORM               0.032628976488 Eh/α |
          | HOMO-LUMO GAP               0.895608364095 eV   |
           -------------------------------------------------

------------------------------------------------------------------------
 * finished run on 2021/10/08 at 07:23:19.629     
------------------------------------------------------------------------
 total:
 * wall-time:     0 d,  0 h,  0 min,  0.166 sec
 *  cpu-time:     0 d,  0 h,  0 min,  0.974 sec
 * ratio c/w:     5.852 speedup
 SCF:
 * wall-time:     0 d,  0 h,  0 min,  0.121 sec
 *  cpu-time:     0 d,  0 h,  0 min,  0.725 sec
 * ratio c/w:     5.972 speedup

