      -----------------------------------------------------------      
     |                   =====================                   |     
     |                           x T B                           |     
     |                   =====================                   |     
     |                         S. Grimme                         |     
     |          Mulliken Center for Theoretical Chemistry        |     
     |                    University of Bonn                     |     
      -----------------------------------------------------------      

   * xtb version 6.4.0 (f63f532) compiled by 'knkr256@seskscpg008.prim.scp' on 2021-04-09

   xtb is free software: you can redistribute it and/or modify it under
   the terms of the GNU Lesser General Public License as published by
   the Free Software Foundation, either version 3 of the License, or
   (at your option) any later version.
   
   xtb is distributed in the hope that it will be useful,
   but WITHOUT ANY WARRANTY; without even the implied warranty of
   MERCHANTABILITY or FITNESS FOR A PARTICULAR PURPOSE.  See the
   GNU Lesser General Public License for more details.
   
   Cite this work as:
   * C. Bannwarth, E. Caldeweyher, S. Ehlert, A. Hansen, P. Pracht,
     J. Seibert, S. Spicher, S. Grimme, WIREs Comput. Mol. Sci., 2020, 11,
     e01493. DOI: 10.1002/wcms.1493
   
   for GFN2-xTB:
   * C. Bannwarth, S. Ehlert and S. Grimme., J. Chem. Theory Comput., 2019,
     15, 1652-1671. DOI: 10.1021/acs.jctc.8b01176
   for GFN1-xTB:
   * S. Grimme, C. Bannwarth, P. Shushkov, J. Chem. Theory Comput., 2017,
     13, 1989-2009. DOI: 10.1021/acs.jctc.7b00118
   for GFN0-xTB:
   * P. Pracht, E. Caldeweyher, S. Ehlert, S. Grimme, ChemRxiv, 2019, preprint.
     DOI: 10.26434/chemrxiv.8326202.v1
   for GFN-FF:
   * S. Spicher and S. Grimme, Angew. Chem. Int. Ed., 2020, 59, 15665-15673.
     DOI: 10.1002/anie.202004239
   
   for DFT-D4:
   * E. Caldeweyher, C. Bannwarth and S. Grimme, J. Chem. Phys., 2017,
     147, 034112. DOI: 10.1063/1.4993215
   * E. Caldeweyher, S. Ehlert, A. Hansen, H. Neugebauer, S. Spicher,
     C. Bannwarth and S. Grimme, J. Chem. Phys., 2019, 150, 154122.
     DOI: 10.1063/1.5090222
   * E. Caldeweyher, J.-M. Mewes, S. Ehlert and S. Grimme, Phys. Chem. Chem. Phys.
     2020, 22, 8499-8512. DOI: 10.1039/D0CP00502A
   
   for sTDA-xTB:
   * S. Grimme and C. Bannwarth, J. Chem. Phys., 2016, 145, 054103.
     DOI: 10.1063/1.4959605
   
   in the mass-spec context:
   * V. Asgeirsson, C. Bauer and S. Grimme, Chem. Sci., 2017, 8, 4879.
     DOI: 10.1039/c7sc00601b
   * J. Koopman and S. Grimme, ACS Omega 2019, 4, 12, 15120-15133.
     DOI: 10.1021/acsomega.9b02011
   
   for metadynamics refer to:
   * S. Grimme, J. Chem. Theory Comput., 2019, 155, 2847-2862
     DOI: 10.1021/acs.jctc.9b00143
   
   for SPH calculations refer to:
   * S. Spicher and S. Grimme, J. Chem. Theory Comput., 2021, 17, 1701-1714
     DOI: 10.1021/acs.jctc.0c01306
   
   with help from (in alphabetical order)
   P. Atkinson, C. Bannwarth, F. Bohle, G. Brandenburg, E. Caldeweyher
   M. Checinski, S. Dohm, S. Ehlert, S. Ehrlich, I. Gerasimov, J. Koopman
   C. Lavinge, S. Lehtola, F. März, M. Müller, F. Musil, H. Neugebauer
   J. Pisarek, P. Pracht, J. Seibert, P. Shushkov, S. Spicher, M. Stahn
   T. Strunk, J. Stückrath, T. Rose, and J. Unsleber
   
 * started run on 2021/10/08 at 07:10:03.132     

           -------------------------------------------------
          |                Calculation Setup                |
           -------------------------------------------------

          program call               : xtb xtbopt.xyz --sp --alpb thf -P 6
          hostname                   : seskscpg010.prim.scp
          coordinate file            : xtbopt.xyz
          omp threads                :                     6
          number of atoms            :                    97
          number of electrons        :                   252
          charge                     :                     0
          spin                       :                   0.0
          first test random number   :      0.37871629241429

   ID    Z sym.   atoms
    1    7 N      1, 11, 91
    2    6 C      2-6, 10, 12-15, 23, 24, 28, 32, 34, 38, 44, 45, 49, 53, 55,
                  59, 65, 66, 70, 74, 76, 80, 86-89, 94
    3    1 H      7-9, 16-18, 20, 25-27, 29-31, 35-37, 39-41, 46-48, 50-52,
                  56-58, 60-62, 67-69, 71-73, 77-79, 81-85, 90, 92, 93, 95-97
    4   77 Ir     19
    5    5 B      21, 42, 63
    6    8 O      22, 33, 43, 54, 64, 75

molecular fragmentation (1/2 indicates fragments):
111111111111111111111111111111111111111111111111111111111111111111111111
1111111111111222222222222
# atoms in fragment 1/2:    85    12
 fragment masses (1/2) :      730.32       80.11
CMA distance (Bohr)    :   8.971
constraining FC (au)   :  0.0500

           -------------------------------------------------
          |                 G F N 2 - x T B                 |
           -------------------------------------------------

        Reference                      10.1021/acs.jctc.8b01176
      * Hamiltonian:
        H0-scaling (s, p, d)           1.850000    2.230000    2.230000
        zeta-weighting                 0.500000
      * Dispersion:
        s8                             2.700000
        a1                             0.520000
        a2                             5.000000
        s9                             5.000000
      * Repulsion:
        kExp                           1.500000    1.000000
        rExp                           1.000000
      * Coulomb:
        alpha                          2.000000
        third order                    shell-resolved
        anisotropic                    true
        a3                             3.000000
        a5                             4.000000
        cn-shift                       1.200000
        cn-exp                         4.000000
        max-rad                        5.000000

      * Solvation model:               ALPB
        Solvent                        thf
        Parameter file                 internal GFN2-xTB/ALPB
        Dielectric constant                7.6000E+00
        Reference state                gsolv [1 M gas/solution]
        Free energy shift                  5.3248E-03 Eh       3.3414E+00 kcal/mol
        Temperature                        2.9815E+02 K
        Density                            8.8300E-01 kg/L
        Solvent mass                       7.2106E+01 g/mol
        Interaction kernel             P16
        Born radius scaling (c1)           1.7311E+00
        Born radii integrator          GBOBC
        Born offset                        0.0000E+00 a0       0.0000E+00 AA
        H-bond correction              true
        Ion screening                  false
        Surface tension                    1.0000E-05 Eh       1.5569E+01 dyn/cm
        Grid points                               230 per atom
q/qsh data taken from xtbrestart
CAMM data taken from xtbrestart

          ...................................................
          :                      SETUP                      :
          :.................................................:
          :  # basis functions                 241          :
          :  # atomic orbitals                 240          :
          :  # shells                          144          :
          :  # electrons                       252          :
          :  max. iterations                   250          :
          :  Hamiltonian                  GFN2-xTB          :
          :  restarted?                       true          :
          :  GBSA solvation                   true          :
          :  PC potential                    false          :
          :  electronic temp.          300.0000000     K    :
          :  accuracy                    1.0000000          :
          :  -> integral cutoff          0.2500000E+02      :
          :  -> integral neglect         0.1000000E-07      :
          :  -> SCF convergence          0.1000000E-05 Eh   :
          :  -> wf. convergence          0.1000000E-03 e    :
          :  Broyden damping             0.4000000          :
          ...................................................

 iter      E             dE          RMSdq      gap      omega  full diag
   1   -139.4911546 -0.139491E+03  0.335E-05    0.86       0.0  T
   2   -139.4911546  0.209184E-10  0.295E-05    0.86     344.0  T
   3   -139.4911546  0.448210E-10  0.347E-05    0.86     292.4  T

   *** convergence criteria satisfied after 3 iterations ***

         #    Occupation            Energy/Eh            Energy/eV
      -------------------------------------------------------------
         1        2.0000           -0.6705672             -18.2471
       ...           ...                  ...                  ...
       120        2.0000           -0.3521362              -9.5821
       121        2.0000           -0.3389947              -9.2245
       122        2.0000           -0.3220653              -8.7638
       123        2.0000           -0.3136811              -8.5357
       124        2.0000           -0.3118370              -8.4855
       125        2.0000           -0.3038051              -8.2670
       126        2.0000           -0.3014548              -8.2030 (HOMO)
       127        0.0000           -0.2698659              -7.3434 (LUMO)
       128                         -0.2421017              -6.5879
       129                         -0.2395532              -6.5186
       130                         -0.1986547              -5.4057
       131                         -0.1844268              -5.0185
       ...                                ...                  ...
       240                          3.7369148             101.6866
      -------------------------------------------------------------
                  HL-Gap            0.0315889 Eh            0.8596 eV
             Fermi-level           -0.2856219 Eh           -7.7722 eV

 SCC (total)                   0 d,  0 h,  0 min,  0.094 sec
 SCC setup                      ...        0 min,  0.003 sec (  3.536%)
 Dispersion                     ...        0 min,  0.001 sec (  1.566%)
 classical contributions        ...        0 min,  0.000 sec (  0.150%)
 integral evaluation            ...        0 min,  0.023 sec ( 24.979%)
 iterations                     ...        0 min,  0.030 sec ( 31.654%)
 molecular gradient             ...        0 min,  0.035 sec ( 37.515%)
 printout                       ...        0 min,  0.001 sec (  0.538%)

         :::::::::::::::::::::::::::::::::::::::::::::::::::::
         ::                     SUMMARY                     ::
         :::::::::::::::::::::::::::::::::::::::::::::::::::::
         :: total energy            -137.732216730196 Eh    ::
         :: total w/o Gsasa/hb      -137.693767818366 Eh    ::
         :: gradient norm              0.036892719676 Eh/a0 ::
         :: HOMO-LUMO gap              0.859576375833 eV    ::
         ::.................................................::
         :: SCC energy              -139.491154630182 Eh    ::
         :: -> isotropic ES            0.239862350061 Eh    ::
         :: -> anisotropic ES          0.016582776384 Eh    ::
         :: -> anisotropic XC          0.044974126201 Eh    ::
         :: -> dispersion             -0.131649274838 Eh    ::
         :: -> Gsolv                  -0.049231033707 Eh    ::
         ::    -> Gelec               -0.010782121877 Eh    ::
         ::    -> Gsasa               -0.041245617992 Eh    ::
         ::    -> Ghb                 -0.002528109282 Eh    ::
         ::    -> Gshift               0.005324815444 Eh    ::
         :: repulsion energy           1.751254677571 Eh    ::
         :: add. restraining           0.000000000000 Eh    ::
         :: total charge               0.000000000006 e     ::
         :::::::::::::::::::::::::::::::::::::::::::::::::::::

           -------------------------------------------------
          |                Property Printout                |
           -------------------------------------------------

    * Orbital Energies and Occupations

         #    Occupation            Energy/Eh            Energy/eV
      -------------------------------------------------------------
         1        2.0000           -0.6705672             -18.2471
       ...           ...                  ...                  ...
       114        2.0000           -0.3906402             -10.6299
       115        2.0000           -0.3828684             -10.4184
       116        2.0000           -0.3826882             -10.4135
       117        2.0000           -0.3793752             -10.3233
       118        2.0000           -0.3788856             -10.3100
       119        2.0000           -0.3664199              -9.9708
       120        2.0000           -0.3521362              -9.5821
       121        2.0000           -0.3389947              -9.2245
       122        2.0000           -0.3220653              -8.7638
       123        2.0000           -0.3136811              -8.5357
       124        2.0000           -0.3118370              -8.4855
       125        2.0000           -0.3038051              -8.2670
       126        2.0000           -0.3014548              -8.2030 (HOMO)
       127        0.0000           -0.2698659              -7.3434 (LUMO)
       128                         -0.2421017              -6.5879
       129                         -0.2395532              -6.5186
       130                         -0.1986547              -5.4057
       131                         -0.1844268              -5.0185
       132                         -0.1626231              -4.4252
       133                         -0.1450298              -3.9465
       134                         -0.1227583              -3.3404
       135                         -0.1209323              -3.2907
       136                         -0.1159766              -3.1559
       137                         -0.1066041              -2.9008
       ...                                ...                  ...
       240                          3.7369148             101.6866
      -------------------------------------------------------------
                  HL-Gap            0.0315889 Eh            0.8596 eV
             Fermi-level           -0.2856219 Eh           -7.7722 eV

     #   Z          covCN         q      C6AA      α(0)
     1   7 N        2.566    -0.121    23.665     7.225
     2   6 C        2.955     0.074    26.347     8.419
     3   6 C        2.918    -0.044    29.094     8.845
     4   6 C        2.923    -0.025    28.622     8.773
     5   6 C        2.915    -0.046    29.139     8.852
     6   6 C        2.892     0.048    26.929     8.508
     7   1 H        0.926     0.049     2.337     2.391
     8   1 H        0.926     0.050     2.317     2.380
     9   1 H        0.926     0.042     2.426     2.436
    10   6 C        2.954     0.070    26.441     8.434
    11   7 N        2.572    -0.121    23.659     7.224
    12   6 C        2.889     0.041    27.068     8.530
    13   6 C        2.915    -0.047    29.167     8.856
    14   6 C        2.922    -0.027    28.674     8.781
    15   6 C        2.918    -0.046    29.149     8.854
    16   1 H        0.926     0.040     2.449     2.447
    17   1 H        0.926     0.047     2.357     2.401
    18   1 H        0.926     0.076     2.019     2.222
    19  77 Ir       5.975    -0.173   390.222    36.530
    20   1 H        0.977     0.096     1.818     2.107
    21   5 B        2.629     0.402    16.038     6.767
    22   8 O        1.638    -0.413    21.105     6.201
    23   6 C        3.835     0.131    18.440     6.109
    24   6 C        3.755    -0.119    22.842     6.815
    25   1 H        0.925     0.052     2.301     2.372
    26   1 H        0.925     0.043     2.411     2.428
    27   1 H        0.925     0.049     2.328     2.386
    28   6 C        3.754    -0.107    22.605     6.779
    29   1 H        0.925     0.045     2.380     2.413
    30   1 H        0.925     0.040     2.451     2.448
    31   1 H        0.925     0.027     2.628     2.535
    32   6 C        3.841     0.131    18.430     6.107
    33   8 O        1.637    -0.407    21.004     6.186
    34   6 C        3.755    -0.119    22.827     6.813
    35   1 H        0.925     0.050     2.325     2.384
    36   1 H        0.925     0.044     2.402     2.423
    37   1 H        0.925     0.048     2.348     2.396
    38   6 C        3.754    -0.119    22.830     6.813
    39   1 H        0.925     0.046     2.368     2.406
    40   1 H        0.925     0.052     2.296     2.369
    41   1 H        0.925     0.043     2.406     2.426
    42   5 B        2.624     0.402    16.066     6.778
    43   8 O        1.637    -0.387    20.603     6.127
    44   6 C        3.837     0.129    18.472     6.114
    45   6 C        3.754    -0.126    22.965     6.833
    46   1 H        0.925     0.055     2.255     2.348
    47   1 H        0.925     0.055     2.262     2.352
    48   1 H        0.925     0.049     2.337     2.391
    49   6 C        3.755    -0.120    22.858     6.817
    50   1 H        0.925     0.047     2.358     2.401
    51   1 H        0.925     0.044     2.403     2.424
    52   1 H        0.925     0.051     2.308     2.376
    53   6 C        3.833     0.127    18.492     6.118
    54   8 O        1.638    -0.382    20.516     6.114
    55   6 C        3.755    -0.124    22.931     6.828
    56   1 H        0.925     0.053     2.287     2.365
    57   1 H        0.925     0.054     2.269     2.355
    58   1 H        0.925     0.047     2.361     2.403
    59   6 C        3.755    -0.123    22.920     6.826
    60   1 H        0.925     0.045     2.380     2.413
    61   1 H        0.925     0.051     2.303     2.373
    62   1 H        0.925     0.050     2.316     2.380
    63   5 B        2.623     0.401    16.074     6.779
    64   8 O        1.637    -0.380    20.478     6.108
    65   6 C        3.832     0.125    18.527     6.124
    66   6 C        3.755    -0.130    23.052     6.846
    67   1 H        0.925     0.058     2.218     2.329
    68   1 H        0.925     0.054     2.274     2.358
    69   1 H        0.925     0.049     2.336     2.390
    70   6 C        3.755    -0.128    23.021     6.841
    71   1 H        0.925     0.060     2.195     2.317
    72   1 H        0.925     0.049     2.332     2.388
    73   1 H        0.925     0.051     2.306     2.375
    74   6 C        3.828     0.128    18.492     6.119
    75   8 O        1.637    -0.385    20.571     6.122
    76   6 C        3.755    -0.123    22.907     6.824
    77   1 H        0.925     0.049     2.328     2.386
    78   1 H        0.925     0.052     2.297     2.370
    79   1 H        0.925     0.054     2.274     2.358
    80   6 C        3.755    -0.120    22.856     6.817
    81   1 H        0.925     0.039     2.462     2.454
    82   1 H        0.925     0.047     2.358     2.401
    83   1 H        0.925     0.053     2.283     2.363
    84   1 H        0.926     0.047     2.356     2.400
    85   1 H        0.926     0.044     2.397     2.421
    86   6 C        2.949    -0.052    29.290     8.877
    87   6 C        3.063    -0.068    29.626     8.926
    88   6 C        3.069    -0.036    28.823     8.803
    89   6 C        3.050    -0.037    28.877     8.813
    90   1 H        0.926     0.004     2.996     2.707
    91   7 N        2.845     0.004    21.190     6.837
    92   1 H        0.926     0.030     2.581     2.512
    93   1 H        0.926     0.027     2.631     2.537
    94   6 C        3.691    -0.069    22.020     6.715
    95   1 H        0.925     0.071     2.070     2.250
    96   1 H        0.924     0.064     2.156     2.296
    97   1 H        0.925     0.072     2.067     2.249

 Mol. C6AA /au·bohr⁶  :      97892.785531
 Mol. C8AA /au·bohr⁸  :    2599725.077339
 Mol. α(0) /au        :        484.343926


Wiberg/Mayer (AO) data.
largest (>0.10) Wiberg bond orders for each atom

 ---------------------------------------------------------------------------
     #   Z sym  total        # sym  WBO       # sym  WBO       # sym  WBO
 ---------------------------------------------------------------------------
     1   7 N    3.407 --     6 C    1.382     2 C    1.300    19 Ir   0.464
     2   6 C    3.979 --     3 C    1.343     1 N    1.300    10 C    1.101
     3   6 C    3.988 --     4 C    1.490     2 C    1.343     9 H    0.962
                             6 C    0.106
     4   6 C    3.985 --     3 C    1.490     5 C    1.371    84 H    0.969
     5   6 C    3.979 --     6 C    1.468     4 C    1.371     8 H    0.969
     6   6 C    3.979 --     5 C    1.468     1 N    1.382     7 H    0.957
                             3 C    0.106
     7   1 H    0.997 --     6 C    0.957
     8   1 H    0.997 --     5 C    0.969
     9   1 H    0.998 --     3 C    0.962
    10   6 C    3.979 --    15 C    1.347    11 N    1.295     2 C    1.101
    11   7 N    3.414 --    12 C    1.380    10 C    1.295    19 Ir   0.455
    12   6 C    3.973 --    13 C    1.464    11 N    1.380    18 H    0.948
                            15 C    0.105
    13   6 C    3.982 --    12 C    1.464    14 C    1.376    17 H    0.969
    14   6 C    3.982 --    15 C    1.484    13 C    1.376    85 H    0.970
    15   6 C    3.989 --    14 C    1.484    10 C    1.347    16 H    0.962
                            12 C    0.105
    16   1 H    0.998 --    15 C    0.962
    17   1 H    0.997 --    13 C    0.969
    18   1 H    0.994 --    12 C    0.948
    19  77 Ir   5.252 --    63 B    0.876    42 B    0.873    21 B    0.716
                            86 C    0.594    20 H    0.543     1 N    0.464
                            11 N    0.455
    20   1 H    0.989 --    19 Ir   0.543    86 C    0.342
    21   5 B    3.260 --    33 O    1.104    22 O    1.085    19 Ir   0.716
    22   8 O    2.184 --    21 B    1.085    23 C    0.945
    23   6 C    3.945 --    24 C    0.996    28 C    0.990    22 O    0.945
                            32 C    0.941
    24   6 C    3.994 --    23 C    0.996    26 H    0.984    27 H    0.983
                            25 H    0.983
    25   1 H    0.997 --    24 C    0.983
    26   1 H    0.997 --    24 C    0.984
    27   1 H    0.997 --    24 C    0.983
    28   6 C    3.997 --    23 C    0.990    31 H    0.985    29 H    0.984
                            30 H    0.984
    29   1 H    0.997 --    28 C    0.984
    30   1 H    0.998 --    28 C    0.984
    31   1 H    0.999 --    28 C    0.985
    32   6 C    3.942 --    38 C    0.997    34 C    0.990    33 O    0.942
                            23 C    0.941
    33   8 O    2.194 --    21 B    1.104    32 C    0.942
    34   6 C    3.994 --    32 C    0.990    36 H    0.984    37 H    0.982
                            35 H    0.982
    35   1 H    0.998 --    34 C    0.982
    36   1 H    0.997 --    34 C    0.984
    37   1 H    0.997 --    34 C    0.982
    38   6 C    3.995 --    32 C    0.997    41 H    0.984    39 H    0.983
                            40 H    0.983
    39   1 H    0.998 --    38 C    0.983
    40   1 H    0.997 --    38 C    0.983
    41   1 H    0.997 --    38 C    0.984
    42   5 B    3.331 --    43 O    1.106    54 O    1.104    19 Ir   0.873
    43   8 O    2.218 --    42 B    1.106    44 C    0.939
    44   6 C    3.938 --    45 C    0.996    49 C    0.990    53 C    0.939
                            43 O    0.939
    45   6 C    3.993 --    44 C    0.996    48 H    0.983    46 H    0.982
                            47 H    0.982
    46   1 H    0.997 --    45 C    0.982
    47   1 H    0.997 --    45 C    0.982
    48   1 H    0.997 --    45 C    0.983
    49   6 C    3.994 --    44 C    0.990    50 H    0.984    51 H    0.983
                            52 H    0.980
    50   1 H    0.997 --    49 C    0.984
    51   1 H    0.998 --    49 C    0.983
    52   1 H    0.997 --    49 C    0.980
    53   6 C    3.939 --    55 C    0.996    59 C    0.991    44 C    0.939
                            54 O    0.938
    54   8 O    2.224 --    42 B    1.104    53 C    0.938
    55   6 C    3.993 --    53 C    0.996    58 H    0.983    57 H    0.983
                            56 H    0.983
    56   1 H    0.997 --    55 C    0.983
    57   1 H    0.997 --    55 C    0.983
    58   1 H    0.997 --    55 C    0.983
    59   6 C    3.995 --    53 C    0.991    61 H    0.984    62 H    0.983
                            60 H    0.982
    60   1 H    0.998 --    59 C    0.982
    61   1 H    0.996 --    59 C    0.984
    62   1 H    0.997 --    59 C    0.983
    63   5 B    3.352 --    75 O    1.111    64 O    1.105    19 Ir   0.876
    64   8 O    2.223 --    63 B    1.105    65 C    0.940
    65   6 C    3.939 --    70 C    0.996    66 C    0.991    64 O    0.940
                            74 C    0.938
    66   6 C    3.993 --    65 C    0.991    69 H    0.983    68 H    0.983
                            67 H    0.979
    67   1 H    0.997 --    66 C    0.979
    68   1 H    0.997 --    66 C    0.983
    69   1 H    0.997 --    66 C    0.983
    70   6 C    3.992 --    65 C    0.996    72 H    0.984    73 H    0.982
                            71 H    0.982
    71   1 H    0.996 --    70 C    0.982
    72   1 H    0.997 --    70 C    0.984
    73   1 H    0.997 --    70 C    0.982
    74   6 C    3.937 --    76 C    0.996    80 C    0.991    75 O    0.938
                            65 C    0.938
    75   8 O    2.226 --    63 B    1.111    74 C    0.938
    76   6 C    3.993 --    74 C    0.996    77 H    0.983    78 H    0.982
                            79 H    0.982
    77   1 H    0.996 --    76 C    0.983
    78   1 H    0.997 --    76 C    0.982
    79   1 H    0.997 --    76 C    0.982
    80   6 C    3.995 --    74 C    0.991    81 H    0.984    83 H    0.984
                            82 H    0.983
    81   1 H    0.998 --    80 C    0.984
    82   1 H    0.997 --    80 C    0.983
    83   1 H    0.996 --    80 C    0.984
    84   1 H    0.997 --     4 C    0.969
    85   1 H    0.997 --    14 C    0.970
    86   6 C    3.951 --    88 C    1.491    87 C    1.292    19 Ir   0.594
                            20 H    0.342
    87   6 C    3.975 --    89 C    1.534    86 C    1.292    90 H    0.972
    88   6 C    3.941 --    86 C    1.491    91 N    1.223    92 H    0.965
                            89 C    0.131
    89   6 C    3.937 --    87 C    1.534    91 N    1.223    93 H    0.969
                            88 C    0.131
    90   1 H    1.000 --    87 C    0.972
    91   7 N    3.631 --    89 C    1.223    88 C    1.223    94 C    1.004
    92   1 H    0.999 --    88 C    0.965
    93   1 H    0.998 --    89 C    0.969
    94   6 C    3.967 --    91 N    1.004    97 H    0.978    95 H    0.978
                            96 H    0.972
    95   1 H    0.994 --    94 C    0.978
    96   1 H    0.995 --    94 C    0.972
    97   1 H    0.995 --    94 C    0.978
 ---------------------------------------------------------------------------

Topologies differ in total number of bonds
Writing topology from bond orders to xtbtopo.mol

molecular dipole:
                 x           y           z       tot (Debye)
 q only:        0.637       0.068       0.828
   full:       -0.519       0.384       0.200       1.718
molecular quadrupole (traceless):
                xx          xy          yy          xz          yz          zz
 q only:       -0.536      -1.773     -12.340       9.219       3.099      12.876
  q+dip:        2.647      -0.216     -14.449       8.923       7.784      11.802
   full:        0.494       1.034     -13.126       6.982       4.906      12.632


           -------------------------------------------------
          | TOTAL ENERGY             -137.732216730196 Eh   |
          | GRADIENT NORM               0.036892719676 Eh/α |
          | HOMO-LUMO GAP               0.859576375833 eV   |
           -------------------------------------------------

------------------------------------------------------------------------
 * finished run on 2021/10/08 at 07:10:03.262     
------------------------------------------------------------------------
 total:
 * wall-time:     0 d,  0 h,  0 min,  0.130 sec
 *  cpu-time:     0 d,  0 h,  0 min,  0.757 sec
 * ratio c/w:     5.834 speedup
 SCF:
 * wall-time:     0 d,  0 h,  0 min,  0.095 sec
 *  cpu-time:     0 d,  0 h,  0 min,  0.567 sec
 * ratio c/w:     5.973 speedup

