97
 energy: -137.718498091000 gnorm: 0.074824866163 xtb: 6.4.0 (f63f532)
N        -0.96510000000000   -2.11530000000000   -0.24090000000000
C        -2.24700000000000   -1.69840000000000   -0.36220000000000
C        -3.14040000000000   -2.36820000000000   -1.21200000000000
C        -2.70220000000000   -3.47560000000000   -1.93050000000000
C        -1.37780000000000   -3.89880000000000   -1.78760000000000
C        -0.54290000000000   -3.18670000000000   -0.93510000000000
H         0.49810000000000   -3.45630000000000   -0.78940000000000
H        -0.99570000000000   -4.76030000000000   -2.32770000000000
H        -4.16500000000000   -2.02890000000000   -1.31830000000000
C        -2.62130000000000   -0.50950000000000    0.44100000000000
N        -1.62600000000000    0.07330000000000    1.16020000000000
C        -1.89680000000000    1.15240000000000    1.91690000000000
C        -3.17230000000000    1.70330000000000    1.99650000000000
C        -4.20510000000000    1.11740000000000    1.26270000000000
C        -3.92610000000000    0.00250000000000    0.47820000000000
H        -4.71960000000000   -0.46420000000000   -0.09520000000000
H        -3.34630000000000    2.57510000000000    2.62070000000000
H        -1.04450000000000    1.57420000000000    2.43690000000000
Ir        0.42150000000000   -0.81650000000000    0.91330000000000
H         0.87260000000000   -2.23030000000000    1.54050000000000
B         0.50670000000000    0.41560000000000   -0.81540000000000
O         0.19500000000000   -0.04700000000000   -2.09150000000000
C         0.00650000000000    1.10040000000000   -2.95430000000000
C         0.49020000000000    0.74740000000000   -4.35780000000000
H         1.51610000000000    0.37380000000000   -4.33700000000000
H         0.44730000000000    1.62240000000000   -5.01670000000000
H        -0.14740000000000   -0.03390000000000   -4.78430000000000
C        -1.50120000000000    1.39560000000000   -2.96670000000000
H        -1.75370000000000    2.21460000000000   -3.64850000000000
H        -2.03200000000000    0.49450000000000   -3.28930000000000
H        -1.85170000000000    1.65210000000000   -1.96220000000000
C         0.84230000000000    2.20670000000000   -2.22040000000000
O         0.75200000000000    1.78260000000000   -0.83690000000000
C         2.32930000000000    2.18620000000000   -2.59900000000000
H         2.74130000000000    1.18500000000000   -2.45750000000000
H         2.48870000000000    2.51300000000000   -3.63180000000000
H         2.87200000000000    2.86270000000000   -1.93200000000000
C         0.28440000000000    3.62290000000000   -2.33660000000000
H        -0.72650000000000    3.69040000000000   -1.92910000000000
H         0.92130000000000    4.31480000000000   -1.77610000000000
H         0.26430000000000    3.94810000000000   -3.38320000000000
B         1.56300000000000    0.60960000000000    1.84840000000000
O         2.92780000000000    0.55230000000000    2.15020000000000
C         3.36330000000000    1.88660000000000    2.50260000000000
C         4.53140000000000    1.78590000000000    3.47740000000000
H         4.27910000000000    1.16090000000000    4.33690000000000
H         5.39390000000000    1.33790000000000    2.97340000000000
H         4.82390000000000    2.77870000000000    3.83820000000000
C         3.79700000000000    2.56850000000000    1.19670000000000
H         4.20020000000000    3.57090000000000    1.37680000000000
H         4.56740000000000    1.95560000000000    0.72110000000000
H         2.95240000000000    2.63260000000000    0.50540000000000
C         2.05040000000000    2.50090000000000    3.09320000000000
O         1.03750000000000    1.81620000000000    2.31910000000000
C         1.89100000000000    4.00450000000000    2.88650000000000
H         1.87290000000000    4.25440000000000    1.82410000000000
H         0.94940000000000    4.34260000000000    3.33170000000000
H         2.71080000000000    4.55150000000000    3.36630000000000
C         1.82470000000000    2.13200000000000    4.56520000000000
H         1.92610000000000    1.05330000000000    4.71320000000000
H         2.52610000000000    2.65280000000000    5.22540000000000
H         0.80630000000000    2.41580000000000    4.84900000000000
B         2.27820000000000   -1.33090000000000    0.17410000000000
O         2.89460000000000   -2.57740000000000    0.38450000000000
C         4.26930000000000   -2.48200000000000   -0.07210000000000
C         5.10900000000000   -2.05380000000000    1.14010000000000
H         4.76350000000000   -1.08740000000000    1.51750000000000
H         4.98050000000000   -2.79470000000000    1.93590000000000
H         6.17420000000000   -1.99290000000000    0.89300000000000
C         4.71950000000000   -3.84660000000000   -0.58470000000000
H         4.75280000000000   -4.56130000000000    0.24420000000000
H         5.72330000000000   -3.78370000000000   -1.02010000000000
H         4.03500000000000   -4.23600000000000   -1.34170000000000
C         4.16440000000000   -1.36220000000000   -1.16300000000000
O         3.08520000000000   -0.55030000000000   -0.65400000000000
C         5.40720000000000   -0.48870000000000   -1.31550000000000
H         6.27320000000000   -1.09010000000000   -1.61530000000000
H         5.23300000000000    0.26930000000000   -2.08590000000000
H         5.64270000000000    0.02650000000000   -0.38240000000000
C         3.71800000000000   -1.89830000000000   -2.53110000000000
H         2.82530000000000   -2.52160000000000   -2.42740000000000
H         3.46090000000000   -1.05250000000000   -3.17550000000000
H         4.50570000000000   -2.48290000000000   -3.01790000000000
H        -3.38500000000000   -4.00130000000000   -2.59310000000000
H        -5.21400000000000    1.52080000000000    1.29960000000000
C         0.23590000000000   -1.68140000000000    2.96030000000000
C        -0.96978640691064   -2.14849204470234    3.54106904874295
C         1.20651963123684   -1.88627436812935    3.91825543628979
C        -0.68872030141142   -2.56573808235648    4.81803357241516
H        -1.94333922630500   -2.17025143168300    3.08012946285173
N         0.64369741988492   -2.40335922194632    5.04665775787721
H         2.26345435426164   -1.69747415569439    3.85392590550522
H        -1.33852553626563   -2.97334812719932    5.57373170869665
C         1.37214104454410   -2.84471679554921    6.20768482289653
H         0.67384318622535   -3.23841887729311    6.94614035622578
H         1.93264656780353   -2.01791970804991    6.64831833024414
H         2.07653591823961   -3.63338573480906    5.93129391555136
97
 energy: -137.724799707566 gnorm: 0.048560443581 xtb: 6.4.0 (f63f532)
N        -0.96021249107130   -2.09907594223457   -0.24953041341996
C        -2.23981195815738   -1.68995013553255   -0.36372221324626
C        -3.13406335252951   -2.36175664275609   -1.20663115407658
C        -2.70386977277784   -3.46283393453455   -1.92201624265234
C        -1.38297777292873   -3.88120648565202   -1.78216922971017
C        -0.55342713325169   -3.16716787047897   -0.94013145070541
H         0.48031945135769   -3.44754622721688   -0.79104785887368
H        -1.00661865059643   -4.74143667516297   -2.31748215797272
H        -4.15482513264839   -2.02652311713112   -1.31077993320775
C        -2.61133595239198   -0.51497991519338    0.43565759162541
N        -1.61767219650572    0.06376644604033    1.14771410946443
C        -1.89656246694332    1.13549646915043    1.89439356925644
C        -3.16285280537826    1.68575711811132    1.98200960004241
C        -4.19533914244608    1.10236644387484    1.25508763881658
C        -3.91438665182663   -0.00394329669060    0.47524764330211
H        -4.70613554193635   -0.46701140442258   -0.09378318361476
H        -3.33772716743009    2.54934232149616    2.60857916573626
H        -1.05364590116158    1.55301185064226    2.42404205459281
Ir        0.42150000000000   -0.81650000000000    0.91330000000000
H         0.87260000000000   -2.23030000000000    1.54050000000000
B         0.49403253145007    0.42342497963459   -0.79031501128634
O         0.17671208488480   -0.03452769887189   -2.06353928586098
C         0.01108480281967    1.09707017366834   -2.94342795017966
C         0.48987719461870    0.74789456191180   -4.34859495344285
H         1.50887405710820    0.37101841776466   -4.32730529339430
H         0.44498155093258    1.62345881725803   -4.99710231872796
H        -0.14891517327146   -0.02823637052698   -4.76889317054446
C        -1.49311870064560    1.39950309300726   -2.96995790522774
H        -1.73191045271356    2.21258673773967   -3.65407190564883
H        -2.02329494274176    0.50227389470159   -3.28963264901291
H        -1.84000045265707    1.65396475703268   -1.96824911977589
C         0.83215999353042    2.20721483274504   -2.21250174605229
O         0.75626846006847    1.78066308398437   -0.83580556441883
C         2.31466492279611    2.19142361341766   -2.60026478495347
H         2.71891499772677    1.19227900245771   -2.45006873048639
H         2.46642383732044    2.51265295617523   -3.63018923408401
H         2.85691483783981    2.86610110078922   -1.93864866455016
C         0.28057597689624    3.62330972430436   -2.33974047347617
H        -0.72272160377616    3.69207626994202   -1.92726545717373
H         0.92013476027898    4.30703279826494   -1.78289698424642
H         0.26272604118842    3.93586795065596   -3.38406120675093
B         1.56230942837746    0.60642072734751    1.87304739760473
O         2.92615493744609    0.56157581476540    2.14470147818987
C         3.36306803268099    1.88500772575218    2.51116512114503
C         4.53395459106164    1.79004128342084    3.48096995977780
H         4.28215759079366    1.16230396129308    4.33146751691326
H         5.38866504775941    1.34547346601751    2.97290594706347
H         4.81622650036680    2.78085663621204    3.83605794844578
C         3.79847979673238    2.57250586777860    1.21238438100411
H         4.19945871669043    3.56881217396633    1.39528663430486
H         4.56252371957375    1.96139283133498    0.73485570636159
H         2.95012770431170    2.62427530445986    0.53131528835656
C         2.05343638833379    2.50449359852629    3.09070590687509
O         1.04171604928257    1.80668430029004    2.33934539506264
C         1.89435149943411    4.00672011130363    2.88970591583057
H         1.86864339010523    4.24984021025848    1.83131801116088
H         0.95658775470331    4.33579679717839    3.33577973090796
H         2.71470708241697    4.54380055079640    3.36547723228741
C         1.83241551606481    2.14100504585416    4.56284057594253
H         1.93415284360593    1.06480632361930    4.69617573827947
H         2.53374005230252    2.66231554512215    5.21223045763746
H         0.81736063376689    2.41843579164226    4.84614618894742
B         2.27820000000000   -1.33090000000000    0.17410000000000
O         2.90224967453557   -2.56242308553755    0.38897947276979
C         4.26643229500214   -2.48342851536874   -0.07848607568917
C         5.11054807782136   -2.05868799302931    1.12756130975045
H         4.75229109810517   -1.09937463778076    1.49875918853118
H         4.97888059176510   -2.79490169758186    1.91956248213895
H         6.16842267869320   -1.99782313985702    0.87589911319989
C         4.72149686110319   -3.84550081492834   -0.58843905438786
H         4.75067427473985   -4.54991000304574    0.24156166189720
H         5.71925617281947   -3.77404535283808   -1.02081586704676
H         4.03549604305493   -4.23277714112247   -1.33697352589370
C         4.16721943186487   -1.36009897837307   -1.15795408064932
O         3.07559210497879   -0.56353526162061   -0.66200298547729
C         5.41057101777389   -0.49192522503797   -1.31572131328405
H         6.26688718467593   -1.09762603068304   -1.61151218318257
H         5.23198756170329    0.25931824050648   -2.08392659720239
H         5.63769198978945    0.02266002157958   -0.38653350403857
C         3.73040187556900   -1.89943927539863   -2.52616366110265
H         2.83809314995616   -2.51454106907625   -2.41724920619363
H         3.47269400010147   -1.05792436212343   -3.16798940257678
H         4.52020927818786   -2.47672422799539   -3.00425887099223
H        -3.38315317198325   -3.98806458360685   -2.57999586054163
H        -5.19939362129172    1.50404230602076    1.29566619828907
C         0.23590000000000   -1.68140000000000    2.96030000000001
C        -0.97123865034347   -2.14472279733812    3.54290860831169
C         1.20462912778636   -1.88380949122797    3.92126301706876
C        -0.69066007558079   -2.55847634389321    4.81951716910710
H        -1.94304050424117   -2.16588510331192    3.08300414360880
N         0.64021265842109   -2.39724256453547    5.04838508731023
H         2.25891071359809   -1.69581273122980    3.85842830310348
H        -1.33978463459787   -2.96264302861591    5.57417524487105
C         1.36638988014137   -2.83652148687206    6.20994616070480
H         0.66845484009907   -3.22824990118279    6.94783685244139
H         1.92692427953277   -2.00994322735085    6.64983012485630
H         2.07079567063845   -3.62611241279985    5.93589834423301
97
 energy: -137.726427598725 gnorm: 0.040045876519 xtb: 6.4.0 (f63f532)
N        -0.94957124616655   -2.08891430329938   -0.25873504201311
C        -2.22866309035104   -1.68277094573802   -0.36743718218091
C        -3.12793499675946   -2.35471402041207   -1.20465287751478
C        -2.70610756567177   -3.45265448125929   -1.92060859434952
C        -1.38477031487814   -3.87055564405482   -1.78417580097341
C        -0.55569653654295   -3.15609333884260   -0.94805479539143
H         0.47672330666426   -3.44073988896805   -0.80679820725495
H        -1.01404413903449   -4.73051964869400   -2.31753904036406
H        -4.14765485579220   -2.02072884001952   -1.30043685442230
C        -2.59685797775544   -0.51841847520286    0.42809215165542
N        -1.60523157056393    0.05496224674910    1.14211004020553
C        -1.89131332805426    1.12028794086516    1.88530847624745
C        -3.15272116142823    1.67165857366227    1.97512038295399
C        -4.18623188854195    1.08959134664170    1.24795019613161
C        -3.90102607897888   -0.00967913765758    0.46812319861833
H        -4.69022413541313   -0.47441223103853   -0.09886416506401
H        -3.32829200408088    2.53113784307150    2.60165043230350
H        -1.05388156637852    1.54196284888625    2.41713131188427
Ir        0.42150000000000   -0.81650000000000    0.91330000000000
H         0.87260000000000   -2.23030000000000    1.54050000000000
B         0.49826335711321    0.43462244798318   -0.76725731898875
O         0.15868470441448   -0.02329902957122   -2.03418087194401
C         0.00710733443142    1.09543465805562   -2.92339480564816
C         0.49052265289789    0.74158485258828   -4.32632765676134
H         1.50584177287396    0.36102228934266   -4.30626636998443
H         0.44563050688851    1.62030246470229   -4.96502490203110
H        -0.15224392466564   -0.02846627521453   -4.74523061789756
C        -1.49555653530990    1.40687783171861   -2.96937765762531
H        -1.71618549665460    2.21626889871576   -3.65905924937547
H        -2.02512480761499    0.51200455208216   -3.29005684587082
H        -1.84531661437207    1.66464282278073   -1.97176304136104
C         0.82482291289154    2.20809907494639   -2.19944954869284
O         0.76101889242193    1.78669019183872   -0.82781702564983
C         2.30472141126210    2.19774225974182   -2.59818430661692
H         2.70639926233553    1.20028664219286   -2.44097450839331
H         2.44312686483330    2.51143903538067   -3.62915120997656
H         2.84688055046282    2.87708163718673   -1.94489104712472
C         0.27024667515527    3.62259653181130   -2.33616699137550
H        -0.72891700129102    3.69700207450174   -1.92008814565782
H         0.91482137091919    4.30528233826576   -1.78895079588631
H         0.25265423700577    3.91834717001760   -3.38195022749865
B         1.56725725670243    0.61465139888401    1.87402611741492
O         2.92511184746911    0.57061850044706    2.13964490152553
C         3.36253285821264    1.88497021930992    2.51695676727885
C         4.53240924558285    1.79132786713341    3.48924908036875
H         4.28488172558837    1.15964675632652    4.33500720276723
H         5.38458927725410    1.35407636664484    2.97639101155597
H         4.80449252413914    2.78229991164005    3.84115533294458
C         3.80167826416791    2.58047679517423    1.22407467898031
H         4.19846156561097    3.57320654355330    1.41466688464658
H         4.56521037815734    1.97242021965047    0.74654675476670
H         2.95164130979023    2.62619724103650    0.54771110142835
C         2.05422862585592    2.50315048170265    3.09399035446876
O         1.04445809044687    1.79908944048205    2.35618964156331
C         1.89645822926960    4.00529990181287    2.89101920838696
H         1.86297105331508    4.24695141487356    1.83466148175877
H         0.96353099805408    4.33049249428536    3.34317219797884
H         2.72041569041365    4.53384851077175    3.36203859356668
C         1.84408140323138    2.14733357587829    4.57045287338164
H         1.94834026912561    1.07247638483905    4.69536556723096
H         2.54767170360389    2.67193842105606    5.20914101811381
H         0.83098962172998    2.42130854451165    4.85487543048060
B         2.27820000000000   -1.33090000000000    0.17409999999999
O         2.90556896387315   -2.55111557519305    0.39616920593788
C         4.26017055741275   -2.48163153619699   -0.07984627977754
C         5.11467128262608   -2.06076719246032    1.11994343896242
H         4.74978311822852   -1.10534145658229    1.48895180482636
H         4.98462857232193   -2.79661253467947    1.90888491727672
H         6.16678510061835   -1.99929181625467    0.85941763619381
C         4.71500763840666   -3.84308226400620   -0.59321757077344
H         4.74671666243006   -4.54125941348991    0.23807672296733
H         5.70868133959585   -3.76219727940537   -1.02460482432786
H         4.02894821429193   -4.23194044950454   -1.33734503804828
C         4.16376676108499   -1.35979103888302   -1.15671753278365
O         3.06535612813270   -0.57285060251774   -0.67037767307103
C         5.40873520317090   -0.49325789062833   -1.31025506183889
H         6.25743406017330   -1.10610600576111   -1.60049886197640
H         5.23161438537930    0.25138782046184   -2.08130214249084
H         5.63221556189403    0.02357790367067   -0.38415826373716
C         3.74180019300774   -1.90246667765891   -2.52900641868347
H         2.85047137773870   -2.51483478942590   -2.41934247440190
H         3.48771202481848   -1.06276177126930   -3.17125957616891
H         4.53782295199759   -2.47540365843441   -2.99435409717748
H        -3.38677391183295   -3.97859198179748   -2.57218565618370
H        -5.18885134700709    1.48743293309883    1.29211658277512
C         0.23590000000001   -1.68139999999999    2.96030000000002
C        -0.97395766966346   -2.13799257630683    3.54397841151736
C         1.20210739794640   -1.88049909732913    3.92483299928296
C        -0.69578120940268   -2.54483884343362    4.82279003594848
H        -1.94452518513048   -2.15830506451699    3.08361869077802
N         0.63414478702511   -2.38591645507702    5.05241581305707
H         2.25551007082640   -1.69460395320700    3.86330966924971
H        -1.34641807613788   -2.94289945441859    5.57791689101772
C         1.35681163530603   -2.82079342727539    6.21664025013097
H         0.65763342995181   -3.20857264745240    6.95457935063933
H         1.91787731786006   -1.99346143328548    6.65411086379619
H         2.06091775964166   -3.61248087269622    5.94717384837100
97
 energy: -137.727036458986 gnorm: 0.039862434863 xtb: 6.4.0 (f63f532)
N        -0.93825223818579   -2.08598183710428   -0.26810264329952
C        -2.21851703509590   -1.68009240188002   -0.37195779350579
C        -3.12241228166440   -2.35201207936634   -1.20569536238625
C        -2.70621863558923   -3.44969763391498   -1.92338693938685
C        -1.38258736065895   -3.86706067626223   -1.79304982381159
C        -0.55003086014429   -3.15186360495649   -0.96124476377202
H         0.48273435864804   -3.43971398300143   -0.82623176400900
H        -1.01578577820154   -4.72771028865770   -2.32686169900210
H        -4.14215924553949   -2.01647287592199   -1.29469575614289
C        -2.58504220093261   -0.52035915074639    0.42382047429200
N        -1.59405433083971    0.05189098543625    1.14069085509545
C        -1.88386636060823    1.11574640113830    1.88352444913652
C        -3.14524114228400    1.66566206305524    1.97432575824586
C        -4.17934450287816    1.08287723061414    1.24550118665395
C        -3.89065725927817   -0.01282606604998    0.46379285294422
H        -4.67713080252784   -0.47839062278242   -0.10602805721154
H        -3.32238213730563    2.52251260096742    2.60276730728084
H        -1.04994670326501    1.53824024045197    2.42080941175534
Ir        0.42150000000000   -0.81650000000000    0.91330000000000
H         0.87260000000000   -2.23030000000000    1.54050000000000
B         0.48610374082974    0.44942078814558   -0.74828872605852
O         0.13840117495505   -0.01357943442906   -2.01124957035879
C        -0.00109921321814    1.09694389642725   -2.90628693538350
C         0.48933689754808    0.73372187104119   -4.30529857961690
H         1.50222228978805    0.34749524865350   -4.27959192485477
H         0.45120807329388    1.61254351970313   -4.94354860974328
H        -0.15654598829135   -0.03333851971957   -4.72437743820163
C        -1.50272696881961    1.41627084679739   -2.96810873631085
H        -1.70903344110758    2.22368677269580   -3.66383901489214
H        -2.03297290000529    0.52274610162332   -3.29067061365514
H        -1.86059208811152    1.68007706551005   -1.97512394278572
C         0.81734979183377    2.21206926363578   -2.18653073146397
O         0.76219156599834    1.79701962175321   -0.81626504828532
C         2.29578030060516    2.20386911670418   -2.59458040961505
H         2.69994465509063    1.20841714598813   -2.43163327960488
H         2.42475468039642    2.50994795947150   -3.62858599824468
H         2.83902482547570    2.89032820394498   -1.94993915417113
C         0.26075800437391    3.62609494657351   -2.33043333253696
H        -0.73621647857662    3.70393241735248   -1.91019636036242
H         0.90880447678402    4.31315712287278   -1.79309167338212
H         0.23835704038139    3.90963466724631   -3.37918109920188
B         1.56709675240478    0.61019917976727    1.89218158594627
O         2.92710463272035    0.57308278645270    2.13682303082743
C         3.36262928621881    1.88370540623877    2.52152160790742
C         4.53306774146750    1.79062720068384    3.49491228877700
H         4.28892892412960    1.15430108452813    4.33789924497048
H         5.38750812356722    1.36081222996113    2.97985447506059
H         4.79741914727792    2.78227541540532    3.84982825458505
C         3.80388962141429    2.58849543910637    1.23337146559608
H         4.19654150284819    3.58085931023182    1.43146835901637
H         4.57080634556584    1.98523802299764    0.75542574877938
H         2.95472472571607    2.63393542475171    0.55629605462333
C         2.05534995518193    2.50126565385960    3.10139050721682
O         1.04487955217768    1.79124536005011    2.37483617955126
C         1.89605512649452    4.00355555642351    2.89381560009972
H         1.85444062922704    4.24259384836792    1.83717194323684
H         0.96720441356515    4.33008242143170    3.35299073970387
H         2.72487380567721    4.53051066013852    3.35724712867705
C         1.85486062061236    2.15290403292972    4.58214217910887
H         1.96264602271976    1.07892454790082    4.70865373187633
H         2.56221091300119    2.68230237964816    5.21172797592502
H         0.84304389849259    2.42589521837033    4.87092901155653
B         2.27820000000000   -1.33089999999999    0.17409999999999
O         2.90765466998456   -2.54541892589147    0.40379658237863
C         4.25617164439684   -2.48057512096950   -0.08012301187155
C         5.11994164200932   -2.06176300362572    1.11501179538970
H         4.75515177522653   -1.10758641666736    1.48678384573445
H         4.99475059953984   -2.79933662757215    1.90277766977496
H         6.16930650935773   -1.99930033028772    0.84635246049927
C         4.70805799676961   -3.84326538708582   -0.59591938278973
H         4.74389475531370   -4.54033739886188    0.23580893211255
H         5.69942352854220   -3.75878706559561   -1.03086658783145
H         4.01947261470612   -4.23270523946905   -1.33718109777072
C         4.16034924459644   -1.35936946226313   -1.15761282789375
O         3.05707921821914   -0.57722326203077   -0.67929638321857
C         5.40588254939853   -0.49147935704060   -1.30577561476386
H         6.25393561024543   -1.10811808723879   -1.58873953299127
H         5.23319633462770    0.24959590393884   -2.08098546466068
H         5.62471617354031    0.02829585015570   -0.38043413559628
C         3.75142217469823   -1.90504217330012   -2.53380839891132
H         2.86069956084911   -2.51874807561072   -2.42998262976610
H         3.50265197047169   -1.06645624179539   -3.17936580203426
H         4.55398724144038   -2.47648112405603   -2.98859992334820
H        -3.39006938025977   -3.97564542884229   -2.57112729869862
H        -5.18260485104715    1.47788788997964    1.29106642366384
C         0.23590000000002   -1.68139999999998    2.96030000000004
C        -0.97701592847515   -2.12972874738332    3.54431251581514
C         1.19931150573087   -1.87706143915668    3.92823347466676
C        -0.70284129181167   -2.52810770665595    4.82682006250747
H        -1.94672461791504   -2.14940568677225    3.08223879940519
N         0.62683261201306   -2.37213338911181    5.05790677430743
H         2.25327823168885   -1.69439778839465    3.86777356456553
H        -1.35660033952846   -2.91836722000814    5.58339868534341
C         1.34544182372252   -2.80114659735789    6.22652355699189
H         0.64377628496118   -3.18346825890303    6.96494230265028
H         1.90693508440468   -1.97226381773746    6.66062604587040
H         2.04899910934983   -3.59563895906018    5.96346294468763
97
 energy: -137.727764610210 gnorm: 0.040038779180 xtb: 6.4.0 (f63f532)
N        -0.92078447238381   -2.08377017804819   -0.28380608755229
C        -2.20333659122246   -1.67815869549489   -0.38016852239784
C        -3.11273906371904   -2.35074450716586   -1.20959242409969
C        -2.70287909647628   -3.44813593401868   -1.93041456267151
C        -1.37591938493802   -3.86390267700617   -1.80991475714970
C        -0.53765855411627   -3.14766289549167   -0.98373914853388
H         0.49697859762875   -3.43679649962604   -0.85985492869023
H        -1.01331243203605   -4.72443258129046   -2.34699368344323
H        -4.13302899284111   -2.01327914900198   -1.28916629730608
C        -2.56839625008303   -0.52284418706910    0.41835754158567
N        -1.57846857926691    0.04676061377504    1.14227277038742
C        -1.87237136630344    1.10947569004224    1.88709319573802
C        -3.13430889978021    1.65795595599358    1.97699665125059
C        -4.16820365041170    1.07591663351512    1.24355882890662
C        -3.87513490290869   -0.01479571805702    0.45750337902298
H        -4.65784351098640   -0.48019036638684   -0.11820987029177
H        -3.31360695142361    2.51196332490982    2.60854788379724
H        -1.04202728254849    1.53352664001505    2.42997546438500
Ir        0.42150000000000   -0.81650000000001    0.91329999999999
H         0.87260000000000   -2.23030000000000    1.54050000000000
B         0.48400014735270    0.47026186842883   -0.72238653876412
O         0.10728292101127    0.00310487832903   -1.97644041446548
C        -0.01712291205508    1.10248263338959   -2.87940077202051
C         0.48374868020652    0.72031939863986   -4.27119657200790
H         1.49207747247656    0.32210214135747   -4.23096849991671
H         0.46207202742041    1.59506909609224   -4.91642649500224
H        -0.16703494370137   -0.04340398107509   -4.68962550485442
C        -1.51668836870268    1.43447975878027   -2.96453408787897
H        -1.70359932273874    2.23853885226236   -3.67000029509952
H        -2.04933292489303    0.54296745746664   -3.28934723504830
H        -1.88923884888264    1.70958203403752   -1.97952433913226
C         0.80584845866729    2.22204506946334   -2.16756960435812
O         0.76535099117301    1.81457820734918   -0.79807927674904
C         2.28210287599361    2.21703148154209   -2.58878211786053
H         2.69296211653836    1.22564413978924   -2.41564239780355
H         2.39839006125306    2.50946335830540   -3.62839064493401
H         2.82692854167813    2.91636764105682   -1.95869781503349
C         0.24394134431814    3.63457631170626   -2.31985228106369
H        -0.74904433113242    3.71583481020008   -1.88993621229958
H         0.89697224413448    4.33085818355694   -1.79944481131627
H         0.20892670869752    3.90278882736980   -3.37278980797170
B         1.57005390916043    0.61298879718286    1.89736161931966
O         2.93060775909076    0.57886146880255    2.12899774379012
C         3.36486527673343    1.88384762489256    2.52836137964278
C         4.53519670736824    1.78728104451740    3.50388276614120
H         4.29538759872214    1.14091478425490    4.34100882159499
H         5.39511416318538    1.37041457074188    2.98621013462771
H         4.78955184606400    2.77841358405149    3.86916772946184
C         3.81004680582223    2.60297325343399    1.24795040543138
H         4.19529646346763    3.59587565213198    1.45890816867090
H         4.58442092370247    2.00888825038319    0.76963267052378
H         2.96449601049218    2.65049522379430    0.56628553067276
C         2.05768010473241    2.49768957711945    3.11556320780047
O         1.04440338921961    1.78089065504314    2.40336538276787