      -----------------------------------------------------------      
     |                   =====================                   |     
     |                           x T B                           |     
     |                   =====================                   |     
     |                         S. Grimme                         |     
     |          Mulliken Center for Theoretical Chemistry        |     
     |                    University of Bonn                     |     
      -----------------------------------------------------------      

   * xtb version 6.4.0 (f63f532) compiled by 'knkr256@seskscpg008.prim.scp' on 2021-04-09

   xtb is free software: you can redistribute it and/or modify it under
   the terms of the GNU Lesser General Public License as published by
   the Free Software Foundation, either version 3 of the License, or
   (at your option) any later version.
   
   xtb is distributed in the hope that it will be useful,
   but WITHOUT ANY WARRANTY; without even the implied warranty of
   MERCHANTABILITY or FITNESS FOR A PARTICULAR PURPOSE.  See the
   GNU Lesser General Public License for more details.
   
   Cite this work as:
   * C. Bannwarth, E. Caldeweyher, S. Ehlert, A. Hansen, P. Pracht,
     J. Seibert, S. Spicher, S. Grimme, WIREs Comput. Mol. Sci., 2020, 11,
     e01493. DOI: 10.1002/wcms.1493
   
   for GFN2-xTB:
   * C. Bannwarth, S. Ehlert and S. Grimme., J. Chem. Theory Comput., 2019,
     15, 1652-1671. DOI: 10.1021/acs.jctc.8b01176
   for GFN1-xTB:
   * S. Grimme, C. Bannwarth, P. Shushkov, J. Chem. Theory Comput., 2017,
     13, 1989-2009. DOI: 10.1021/acs.jctc.7b00118
   for GFN0-xTB:
   * P. Pracht, E. Caldeweyher, S. Ehlert, S. Grimme, ChemRxiv, 2019, preprint.
     DOI: 10.26434/chemrxiv.8326202.v1
   for GFN-FF:
   * S. Spicher and S. Grimme, Angew. Chem. Int. Ed., 2020, 59, 15665-15673.
     DOI: 10.1002/anie.202004239
   
   for DFT-D4:
   * E. Caldeweyher, C. Bannwarth and S. Grimme, J. Chem. Phys., 2017,
     147, 034112. DOI: 10.1063/1.4993215
   * E. Caldeweyher, S. Ehlert, A. Hansen, H. Neugebauer, S. Spicher,
     C. Bannwarth and S. Grimme, J. Chem. Phys., 2019, 150, 154122.
     DOI: 10.1063/1.5090222
   * E. Caldeweyher, J.-M. Mewes, S. Ehlert and S. Grimme, Phys. Chem. Chem. Phys.
     2020, 22, 8499-8512. DOI: 10.1039/D0CP00502A
   
   for sTDA-xTB:
   * S. Grimme and C. Bannwarth, J. Chem. Phys., 2016, 145, 054103.
     DOI: 10.1063/1.4959605
   
   in the mass-spec context:
   * V. Asgeirsson, C. Bauer and S. Grimme, Chem. Sci., 2017, 8, 4879.
     DOI: 10.1039/c7sc00601b
   * J. Koopman and S. Grimme, ACS Omega 2019, 4, 12, 15120-15133.
     DOI: 10.1021/acsomega.9b02011
   
   for metadynamics refer to:
   * S. Grimme, J. Chem. Theory Comput., 2019, 155, 2847-2862
     DOI: 10.1021/acs.jctc.9b00143
   
   for SPH calculations refer to:
   * S. Spicher and S. Grimme, J. Chem. Theory Comput., 2021, 17, 1701-1714
     DOI: 10.1021/acs.jctc.0c01306
   
   with help from (in alphabetical order)
   P. Atkinson, C. Bannwarth, F. Bohle, G. Brandenburg, E. Caldeweyher
   M. Checinski, S. Dohm, S. Ehlert, S. Ehrlich, I. Gerasimov, J. Koopman
   C. Lavinge, S. Lehtola, F. März, M. Müller, F. Musil, H. Neugebauer
   J. Pisarek, P. Pracht, J. Seibert, P. Shushkov, S. Spicher, M. Stahn
   T. Strunk, J. Stückrath, T. Rose, and J. Unsleber
   
 * started run on 2021/10/08 at 07:13:05.880     

           -------------------------------------------------
          |                Calculation Setup                |
           -------------------------------------------------

          program call               : xtb xtbopt.xyz --sp --alpb thf -P 6
          hostname                   : seskscpg010.prim.scp
          coordinate file            : xtbopt.xyz
          omp threads                :                     6
          number of atoms            :                   107
          number of electrons        :                   280
          charge                     :                     0
          spin                       :                   0.0
          first test random number   :      0.62445262823183

   ID    Z sym.   atoms
    1    7 N      1, 11, 87
    2    6 C      2-6, 10, 12-15, 23, 24, 28, 32, 34, 38, 44, 45, 49, 53, 55,
                  59, 65, 66, 70, 74, 76, 80, 86, 88-91, 93, 98-100, 102, 104
    3    1 H      7-9, 16-18, 20, 25-27, 29-31, 35-37, 39-41, 46-48, 50-52,
                  56-58, 60-62, 67-69, 71-73, 77-79, 81-85, 92, 94-97, 101,
                  103, 105-107
    4   77 Ir     19
    5    5 B      21, 42, 63
    6    8 O      22, 33, 43, 54, 64, 75

molecular fragmentation (1/2 indicates fragments):
111111111111111111111111111111111111111111111111111111111111111111111111
11111111111112222222222222222222222
# atoms in fragment 1/2:    85    22
 fragment masses (1/2) :      730.32      156.20
CMA distance (Bohr)    :   8.901
constraining FC (au)   :  0.0500

           -------------------------------------------------
          |                 G F N 2 - x T B                 |
           -------------------------------------------------

        Reference                      10.1021/acs.jctc.8b01176
      * Hamiltonian:
        H0-scaling (s, p, d)           1.850000    2.230000    2.230000
        zeta-weighting                 0.500000
      * Dispersion:
        s8                             2.700000
        a1                             0.520000
        a2                             5.000000
        s9                             5.000000
      * Repulsion:
        kExp                           1.500000    1.000000
        rExp                           1.000000
      * Coulomb:
        alpha                          2.000000
        third order                    shell-resolved
        anisotropic                    true
        a3                             3.000000
        a5                             4.000000
        cn-shift                       1.200000
        cn-exp                         4.000000
        max-rad                        5.000000

      * Solvation model:               ALPB
        Solvent                        thf
        Parameter file                 internal GFN2-xTB/ALPB
        Dielectric constant                7.6000E+00
        Reference state                gsolv [1 M gas/solution]
        Free energy shift                  5.3248E-03 Eh       3.3414E+00 kcal/mol
        Temperature                        2.9815E+02 K
        Density                            8.8300E-01 kg/L
        Solvent mass                       7.2106E+01 g/mol
        Interaction kernel             P16
        Born radius scaling (c1)           1.7311E+00
        Born radii integrator          GBOBC
        Born offset                        0.0000E+00 a0       0.0000E+00 AA
        H-bond correction              true
        Ion screening                  false
        Surface tension                    1.0000E-05 Eh       1.5569E+01 dyn/cm
        Grid points                               230 per atom
q/qsh data taken from xtbrestart
CAMM data taken from xtbrestart

          ...................................................
          :                      SETUP                      :
          :.................................................:
          :  # basis functions                 269          :
          :  # atomic orbitals                 268          :
          :  # shells                          160          :
          :  # electrons                       280          :
          :  max. iterations                   250          :
          :  Hamiltonian                  GFN2-xTB          :
          :  restarted?                       true          :
          :  GBSA solvation                   true          :
          :  PC potential                    false          :
          :  electronic temp.          300.0000000     K    :
          :  accuracy                    1.0000000          :
          :  -> integral cutoff          0.2500000E+02      :
          :  -> integral neglect         0.1000000E-07      :
          :  -> SCF convergence          0.1000000E-05 Eh   :
          :  -> wf. convergence          0.1000000E-03 e    :
          :  Broyden damping             0.4000000          :
          ...................................................

 iter      E             dE          RMSdq      gap      omega  full diag
   1   -154.6786514 -0.154679E+03  0.322E-05    0.87       0.0  T
   2   -154.6786514  0.119655E-10  0.247E-05    0.87     391.1  T
   3   -154.6786514  0.267733E-10  0.295E-05    0.87     327.9  T

   *** convergence criteria satisfied after 3 iterations ***

         #    Occupation            Energy/Eh            Energy/eV
      -------------------------------------------------------------
         1        2.0000           -0.6741575             -18.3448
       ...           ...                  ...                  ...
       134        2.0000           -0.3571800              -9.7194
       135        2.0000           -0.3449641              -9.3870
       136        2.0000           -0.3245722              -8.8321
       137        2.0000           -0.3183707              -8.6633
       138        2.0000           -0.3158737              -8.5954
       139        2.0000           -0.3088706              -8.4048
       140        2.0000           -0.3066597              -8.3446 (HOMO)
       141                         -0.2746003              -7.4723 (LUMO)
       142                         -0.2467979              -6.7157
       143                         -0.2437725              -6.6334
       144                         -0.2199810              -5.9860
       145                         -0.2177541              -5.9254
       ...                                ...                  ...
       268                          3.9137662             106.4990
      -------------------------------------------------------------
                  HL-Gap            0.0320594 Eh            0.8724 eV
             Fermi-level           -0.2905857 Eh           -7.9072 eV

 SCC (total)                   0 d,  0 h,  0 min,  0.122 sec
 SCC setup                      ...        0 min,  0.003 sec (  2.278%)
 Dispersion                     ...        0 min,  0.002 sec (  1.683%)
 classical contributions        ...        0 min,  0.000 sec (  0.137%)
 integral evaluation            ...        0 min,  0.032 sec ( 25.962%)
 iterations                     ...        0 min,  0.037 sec ( 30.122%)
 molecular gradient             ...        0 min,  0.048 sec ( 39.219%)
 printout                       ...        0 min,  0.001 sec (  0.544%)

         :::::::::::::::::::::::::::::::::::::::::::::::::::::
         ::                     SUMMARY                     ::
         :::::::::::::::::::::::::::::::::::::::::::::::::::::
         :: total energy            -152.622335935561 Eh    ::
         :: total w/o Gsasa/hb      -152.581985367782 Eh    ::
         :: gradient norm              0.034393990723 Eh/a0 ::
         :: HOMO-LUMO gap              0.872381097112 eV    ::
         ::.................................................::
         :: SCC energy              -154.678651449644 Eh    ::
         :: -> isotropic ES            0.238644563093 Eh    ::
         :: -> anisotropic ES          0.017139749700 Eh    ::
         :: -> anisotropic XC          0.056119909246 Eh    ::
         :: -> dispersion             -0.156884986531 Eh    ::
         :: -> Gsolv                  -0.050162150133 Eh    ::
         ::    -> Gelec               -0.009811582354 Eh    ::
         ::    -> Gsasa               -0.043299062379 Eh    ::
         ::    -> Ghb                 -0.002376320844 Eh    ::
         ::    -> Gshift               0.005324815444 Eh    ::
         :: repulsion energy           2.046077085455 Eh    ::
         :: add. restraining           0.000000000000 Eh    ::
         :: total charge               0.000000000007 e     ::
         :::::::::::::::::::::::::::::::::::::::::::::::::::::

           -------------------------------------------------
          |                Property Printout                |
           -------------------------------------------------

    * Orbital Energies and Occupations

         #    Occupation            Energy/Eh            Energy/eV
      -------------------------------------------------------------
         1        2.0000           -0.6741575             -18.3448
       ...           ...                  ...                  ...
       128        2.0000           -0.3911573             -10.6439
       129        2.0000           -0.3874674             -10.5435
       130        2.0000           -0.3861374             -10.5073
       131        2.0000           -0.3820023             -10.3948
       132        2.0000           -0.3804478             -10.3525
       133        2.0000           -0.3624821              -9.8636
       134        2.0000           -0.3571800              -9.7194
       135        2.0000           -0.3449641              -9.3870
       136        2.0000           -0.3245722              -8.8321
       137        2.0000           -0.3183707              -8.6633
       138        2.0000           -0.3158737              -8.5954
       139        2.0000           -0.3088706              -8.4048
       140        2.0000           -0.3066597              -8.3446 (HOMO)
       141                         -0.2746003              -7.4723 (LUMO)
       142                         -0.2467979              -6.7157
       143                         -0.2437725              -6.6334
       144                         -0.2199810              -5.9860
       145                         -0.2177541              -5.9254
       146                         -0.2030794              -5.5261
       147                         -0.1935594              -5.2670
       148                         -0.1574162              -4.2835
       149                         -0.1483344              -4.0364
       150                         -0.1255076              -3.4152
       151                         -0.1230794              -3.3492
       ...                                ...                  ...
       268                          3.9137662             106.4990
      -------------------------------------------------------------
                  HL-Gap            0.0320594 Eh            0.8724 eV
             Fermi-level           -0.2905857 Eh           -7.9072 eV

     #   Z          covCN         q      C6AA      α(0)
     1   7 N        2.556    -0.125    23.737     7.236
     2   6 C        2.955     0.074    26.337     8.417
     3   6 C        2.918    -0.043    29.079     8.843
     4   6 C        2.924    -0.022    28.554     8.763
     5   6 C        2.915    -0.043    29.061     8.840
     6   6 C        2.892     0.050    26.878     8.500
     7   1 H        0.926     0.049     2.338     2.391
     8   1 H        0.926     0.051     2.305     2.374
     9   1 H        0.926     0.045     2.377     2.411
    10   6 C        2.951     0.069    26.447     8.435
    11   7 N        2.557    -0.131    23.863     7.255
    12   6 C        2.887     0.040    27.101     8.535
    13   6 C        2.915    -0.046    29.142     8.852
    14   6 C        2.922    -0.027    28.674     8.781
    15   6 C        2.918    -0.046    29.139     8.852
    16   1 H        0.926     0.044     2.401     2.423
    17   1 H        0.926     0.050     2.323     2.384
    18   1 H        0.926     0.078     1.997     2.210
    19  77 Ir       5.944    -0.162   388.995    36.473
    20   1 H        0.977     0.095     1.826     2.111
    21   5 B        2.627     0.406    15.999     6.760
    22   8 O        1.638    -0.411    21.064     6.195
    23   6 C        3.834     0.130    18.445     6.110
    24   6 C        3.755    -0.120    22.855     6.817
    25   1 H        0.925     0.051     2.304     2.374
    26   1 H        0.925     0.044     2.395     2.420
    27   1 H        0.925     0.051     2.306     2.375
    28   6 C        3.755    -0.109    22.639     6.785
    29   1 H        0.925     0.047     2.361     2.403
    30   1 H        0.925     0.042     2.425     2.435
    31   1 H        0.925     0.028     2.618     2.530
    32   6 C        3.840     0.131    18.430     6.107
    33   8 O        1.637    -0.406    20.978     6.182
    34   6 C        3.755    -0.120    22.854     6.817
    35   1 H        0.925     0.051     2.301     2.372
    36   1 H        0.925     0.045     2.388     2.416
    37   1 H        0.925     0.048     2.344     2.394
    38   6 C        3.754    -0.119    22.837     6.814
    39   1 H        0.925     0.046     2.368     2.407
    40   1 H        0.925     0.052     2.291     2.367
    41   1 H        0.925     0.045     2.386     2.416
    42   5 B        2.624     0.404    16.036     6.771
    43   8 O        1.637    -0.386    20.586     6.124
    44   6 C        3.837     0.129    18.464     6.113
    45   6 C        3.754    -0.124    22.944     6.830
    46   1 H        0.925     0.054     2.265     2.353
    47   1 H        0.925     0.054     2.266     2.354
    48   1 H        0.925     0.049     2.335     2.390
    49   6 C        3.755    -0.120    22.862     6.818
    50   1 H        0.925     0.048     2.349     2.397
    51   1 H        0.925     0.045     2.389     2.417
    52   1 H        0.925     0.051     2.302     2.373
    53   6 C        3.833     0.127    18.490     6.118
    54   8 O        1.637    -0.379    20.448     6.104
    55   6 C        3.755    -0.124    22.940     6.829
    56   1 H        0.925     0.054     2.276     2.359
    57   1 H        0.925     0.055     2.258     2.350
    58   1 H        0.925     0.048     2.351     2.398
    59   6 C        3.755    -0.124    22.931     6.828
    60   1 H        0.925     0.046     2.365     2.405
    61   1 H        0.925     0.051     2.308     2.376
    62   1 H        0.925     0.052     2.294     2.369
    63   5 B        2.627     0.407    15.984     6.757
    64   8 O        1.637    -0.378    20.430     6.101
    65   6 C        3.833     0.125    18.521     6.123
    66   6 C        3.755    -0.129    23.037     6.844
    67   1 H        0.925     0.057     2.236     2.339
    68   1 H        0.925     0.055     2.262     2.352
    69   1 H        0.925     0.050     2.323     2.384
    70   6 C        3.755    -0.129    23.037     6.844
    71   1 H        0.925     0.061     2.184     2.311
    72   1 H        0.925     0.050     2.318     2.381
    73   1 H        0.925     0.052     2.289     2.366
    74   6 C        3.830     0.128    18.484     6.117
    75   8 O        1.637    -0.383    20.532     6.116
    76   6 C        3.755    -0.123    22.912     6.825
    77   1 H        0.925     0.050     2.314     2.379
    78   1 H        0.925     0.053     2.283     2.363
    79   1 H        0.925     0.054     2.271     2.357
    80   6 C        3.755    -0.120    22.863     6.818
    81   1 H        0.925     0.040     2.449     2.447
    82   1 H        0.925     0.046     2.365     2.405
    83   1 H        0.925     0.054     2.265     2.354
    84   1 H        0.926     0.051     2.313     2.378
    85   1 H        0.926     0.047     2.358     2.401
    86   6 C        2.923    -0.023    28.571     8.766
    87   7 N        2.860    -0.005    21.355     6.863
    88   6 C        3.073    -0.079    29.901     8.966
    89   6 C        3.749    -0.008    20.786     6.503
    90   6 C        3.047    -0.036    28.853     8.810
    91   6 C        3.028    -0.075    29.833     8.959
    92   1 H        0.926     0.013     2.846     2.638
    93   6 C        2.969     0.008    27.840     8.655
    94   1 H        0.924     0.062     2.175     2.306
    95   1 H        0.924     0.058     2.222     2.331
    96   1 H        0.926     0.019     2.752     2.594
    97   1 H        0.926     0.011     2.876     2.652
    98   6 C        2.926    -0.044    29.086     8.844
    99   6 C        2.923    -0.037    28.927     8.820
   100   6 C        2.919    -0.035    28.870     8.811
   101   1 H        0.925     0.025     2.661     2.551
   102   6 C        2.920    -0.035    28.862     8.810
   103   1 H        0.926     0.044     2.395     2.420
   104   6 C        2.920    -0.039    28.961     8.825
   105   1 H        0.926     0.035     2.522     2.483
   106   1 H        0.926     0.040     2.443     2.444
   107   1 H        0.926     0.037     2.485     2.465

 Mol. C6AA /au·bohr⁶  :     123420.642188
 Mol. C8AA /au·bohr⁸  :    3264287.755520
 Mol. α(0) /au        :        546.936504


Wiberg/Mayer (AO) data.
largest (>0.10) Wiberg bond orders for each atom

 ---------------------------------------------------------------------------
     #   Z sym  total        # sym  WBO       # sym  WBO       # sym  WBO
 ---------------------------------------------------------------------------
     1   7 N    3.402 --     6 C    1.386     2 C    1.302    19 Ir   0.451
     2   6 C    3.978 --     3 C    1.345     1 N    1.302    10 C    1.098
     3   6 C    3.988 --     4 C    1.487     2 C    1.345     9 H    0.962
                             6 C    0.105
     4   6 C    3.984 --     3 C    1.487     5 C    1.377    84 H    0.969
     5   6 C    3.979 --     6 C    1.464     4 C    1.377     8 H    0.969
     6   6 C    3.979 --     5 C    1.464     1 N    1.386     7 H    0.958
                             3 C    0.105
     7   1 H    0.997 --     6 C    0.958
     8   1 H    0.997 --     5 C    0.969
     9   1 H    0.997 --     3 C    0.962
    10   6 C    3.978 --    15 C    1.352    11 N    1.286     2 C    1.098
    11   7 N    3.409 --    12 C    1.374    10 C    1.286    19 Ir   0.447
    12   6 C    3.972 --    13 C    1.464    11 N    1.374    18 H    0.948
                            15 C    0.104
    13   6 C    3.982 --    12 C    1.464    14 C    1.377    17 H    0.969
    14   6 C    3.980 --    15 C    1.478    13 C    1.377    85 H    0.969
    15   6 C    3.988 --    14 C    1.478    10 C    1.352    16 H    0.962
                            12 C    0.104
    16   1 H    0.998 --    15 C    0.962
    17   1 H    0.997 --    13 C    0.969
    18   1 H    0.993 --    12 C    0.948
    19  77 Ir   5.209 --    42 B    0.858    63 B    0.852    21 B    0.705
                            86 C    0.601    20 H    0.557     1 N    0.451
                            11 N    0.447
    20   1 H    0.989 --    19 Ir   0.557    86 C    0.327
    21   5 B    3.271 --    33 O    1.109    22 O    1.091    19 Ir   0.705
    22   8 O    2.188 --    21 B    1.091    23 C    0.943
    23   6 C    3.944 --    24 C    0.996    28 C    0.990    22 O    0.943
                            32 C    0.941
    24   6 C    3.994 --    23 C    0.996    26 H    0.984    27 H    0.983
                            25 H    0.983
    25   1 H    0.997 --    24 C    0.983
    26   1 H    0.997 --    24 C    0.984
    27   1 H    0.997 --    24 C    0.983
    28   6 C    3.997 --    23 C    0.990    31 H    0.984    29 H    0.984
                            30 H    0.984
    29   1 H    0.997 --    28 C    0.984
    30   1 H    0.998 --    28 C    0.984
    31   1 H    0.999 --    28 C    0.984
    32   6 C    3.941 --    38 C    0.997    34 C    0.991    23 C    0.941
                            33 O    0.940
    33   8 O    2.197 --    21 B    1.109    32 C    0.940
    34   6 C    3.994 --    32 C    0.991    36 H    0.984    37 H    0.982
                            35 H    0.981
    35   1 H    0.997 --    34 C    0.981
    36   1 H    0.997 --    34 C    0.984
    37   1 H    0.997 --    34 C    0.982
    38   6 C    3.994 --    32 C    0.997    41 H    0.984    39 H    0.983
                            40 H    0.983
    39   1 H    0.998 --    38 C    0.983
    40   1 H    0.997 --    38 C    0.983
    41   1 H    0.997 --    38 C    0.984
    42   5 B    3.333 --    54 O    1.114    43 O    1.110    19 Ir   0.858
    43   8 O    2.222 --    42 B    1.110    44 C    0.937
    44   6 C    3.937 --    45 C    0.997    49 C    0.990    53 C    0.939
                            43 O    0.937
    45   6 C    3.993 --    44 C    0.997    48 H    0.983    46 H    0.982
                            47 H    0.982
    46   1 H    0.997 --    45 C    0.982
    47   1 H    0.997 --    45 C    0.982
    48   1 H    0.996 --    45 C    0.983
    49   6 C    3.994 --    44 C    0.990    50 H    0.984    51 H    0.982
                            52 H    0.980
    50   1 H    0.997 --    49 C    0.984
    51   1 H    0.998 --    49 C    0.982
    52   1 H    0.997 --    49 C    0.980
    53   6 C    3.938 --    55 C    0.996    59 C    0.992    44 C    0.939
                            54 O    0.935
    54   8 O    2.230 --    42 B    1.114    53 C    0.935
    55   6 C    3.993 --    53 C    0.996    58 H    0.983    57 H    0.983
                            56 H    0.983
    56   1 H    0.997 --    55 C    0.983
    57   1 H    0.997 --    55 C    0.983
    58   1 H    0.996 --    55 C    0.983
    59   6 C    3.994 --    53 C    0.992    61 H    0.983    62 H    0.983
                            60 H    0.982
    60   1 H    0.998 --    59 C    0.982
    61   1 H    0.996 --    59 C    0.983
    62   1 H    0.997 --    59 C    0.983
    63   5 B    3.358 --    75 O    1.113    64 O    1.111    19 Ir   0.852
    64   8 O    2.228 --    63 B    1.111    65 C    0.937
    65   6 C    3.937 --    70 C    0.996    66 C    0.991    74 C    0.938
                            64 O    0.937
    66   6 C    3.992 --    65 C    0.991    69 H    0.983    68 H    0.982
                            67 H    0.979
    67   1 H    0.997 --    66 C    0.979
    68   1 H    0.997 --    66 C    0.982
    69   1 H    0.997 --    66 C    0.983
    70   6 C    3.992 --    65 C    0.996    72 H    0.983    73 H    0.982
                            71 H    0.982
    71   1 H    0.996 --    70 C    0.982
    72   1 H    0.996 --    70 C    0.983
    73   1 H    0.997 --    70 C    0.982
    74   6 C    3.935 --    76 C    0.996    80 C    0.991    65 C    0.938
                            75 O    0.936
    75   8 O    2.229 --    63 B    1.113    74 C    0.936
    76   6 C    3.993 --    74 C    0.996    77 H    0.983    78 H    0.982
                            79 H    0.981
    77   1 H    0.996 --    76 C    0.983
    78   1 H    0.997 --    76 C    0.982
    79   1 H    0.997 --    76 C    0.981
    80   6 C    3.995 --    74 C    0.991    81 H    0.984    83 H    0.983
                            82 H    0.983
    81   1 H    0.998 --    80 C    0.984
    82   1 H    0.998 --    80 C    0.983
    83   1 H    0.996 --    80 C    0.983
    84   1 H    0.997 --     4 C    0.969
    85   1 H    0.997 --    14 C    0.969
    86   6 C    3.904 --    88 C    1.476    87 N    1.200    19 Ir   0.601
                            20 H    0.327    90 C    0.120
    87   7 N    3.621 --    90 C    1.204    86 C    1.200    89 C    1.001
    88   6 C    3.972 --    86 C    1.476    91 C    1.335    92 H    0.967
    89   6 C    3.978 --    87 N    1.001    93 C    0.993    94 H    0.955
                            95 H    0.944
    90   6 C    3.931 --    91 C    1.536    87 N    1.204    96 H    0.968
                            86 C    0.120
    91   6 C    3.974 --    90 C    1.536    88 C    1.335    97 H    0.974
    92   1 H    1.000 --    88 C    0.967
    93   6 C    3.988 --    99 C    1.421    98 C    1.404    89 C    0.993
                           104 C    0.109
    94   1 H    0.996 --    89 C    0.955
    95   1 H    0.996 --    89 C    0.944
    96   1 H    0.998 --    90 C    0.968
    97   1 H    0.999 --    91 C    0.974
    98   6 C    3.991 --   100 C    1.453    93 C    1.404   101 H    0.970
                           102 C    0.112
    99   6 C    3.991 --   102 C    1.436    93 C    1.421   103 H    0.966
                           100 C    0.110
   100   6 C    3.991 --    98 C    1.453   104 C    1.430   105 H    0.971
                            99 C    0.110
   101   1 H    0.999 --    98 C    0.970
   102   6 C    3.992 --   104 C    1.446    99 C    1.436   106 H    0.970
                            98 C    0.112
   103   1 H    0.998 --    99 C    0.966
   104   6 C    3.992 --   102 C    1.446   100 C    1.430   107 H    0.971
                            93 C    0.109
   105   1 H    0.998 --   100 C    0.971
   106   1 H    0.998 --   102 C    0.970
   107   1 H    0.998 --   104 C    0.971
 ---------------------------------------------------------------------------

Topologies differ in total number of bonds
Writing topology from bond orders to xtbtopo.mol

molecular dipole:
                 x           y           z       tot (Debye)
 q only:       -0.363       0.125      -1.157
   full:       -1.479       0.491      -1.775       6.004
molecular quadrupole (traceless):
                xx          xy          yy          xz          yz          zz
 q only:       14.929       3.461       2.767      -2.879      12.522     -17.696
  q+dip:       19.141       3.927       1.296      -1.057      18.059     -20.437
   full:       16.680       5.885       1.515      -4.735      14.330     -18.195


           -------------------------------------------------
          | TOTAL ENERGY             -152.622335935561 Eh   |
          | GRADIENT NORM               0.034393990723 Eh/α |
          | HOMO-LUMO GAP               0.872381097112 eV   |
           -------------------------------------------------

------------------------------------------------------------------------
 * finished run on 2021/10/08 at 07:13:06.048     
------------------------------------------------------------------------
 total:
 * wall-time:     0 d,  0 h,  0 min,  0.168 sec
 *  cpu-time:     0 d,  0 h,  0 min,  0.985 sec
 * ratio c/w:     5.847 speedup
 SCF:
 * wall-time:     0 d,  0 h,  0 min,  0.124 sec
 *  cpu-time:     0 d,  0 h,  0 min,  0.740 sec
 * ratio c/w:     5.977 speedup

