      -----------------------------------------------------------      
     |                   =====================                   |     
     |                           x T B                           |     
     |                   =====================                   |     
     |                         S. Grimme                         |     
     |          Mulliken Center for Theoretical Chemistry        |     
     |                    University of Bonn                     |     
      -----------------------------------------------------------      

   * xtb version 6.4.1 (1a32961) compiled by 'knkr256@seskscpg007.prim.scp' on 2021-10-19

   xtb is free software: you can redistribute it and/or modify it under
   the terms of the GNU Lesser General Public License as published by
   the Free Software Foundation, either version 3 of the License, or
   (at your option) any later version.
   
   xtb is distributed in the hope that it will be useful,
   but WITHOUT ANY WARRANTY; without even the implied warranty of
   MERCHANTABILITY or FITNESS FOR A PARTICULAR PURPOSE.  See the
   GNU Lesser General Public License for more details.
   
   Cite this work as:
   * C. Bannwarth, E. Caldeweyher, S. Ehlert, A. Hansen, P. Pracht,
     J. Seibert, S. Spicher, S. Grimme, WIREs Comput. Mol. Sci., 2020, 11,
     e01493. DOI: 10.1002/wcms.1493
   
   for GFN2-xTB:
   * C. Bannwarth, S. Ehlert and S. Grimme., J. Chem. Theory Comput., 2019,
     15, 1652-1671. DOI: 10.1021/acs.jctc.8b01176
   for GFN1-xTB:
   * S. Grimme, C. Bannwarth, P. Shushkov, J. Chem. Theory Comput., 2017,
     13, 1989-2009. DOI: 10.1021/acs.jctc.7b00118
   for GFN0-xTB:
   * P. Pracht, E. Caldeweyher, S. Ehlert, S. Grimme, ChemRxiv, 2019, preprint.
     DOI: 10.26434/chemrxiv.8326202.v1
   for GFN-FF:
   * S. Spicher and S. Grimme, Angew. Chem. Int. Ed., 2020, 59, 15665-15673.
     DOI: 10.1002/anie.202004239
   
   for ALPB and GBSA implicit solvation:
   * S. Ehlert, M. Stahn, S. Spicher, S. Grimme, J. Chem. Theory Comput.,
     2021, 17, 4250-4261. DOI: 10.1021/acs.jctc.1c00471
   
   for DFT-D4:
   * E. Caldeweyher, C. Bannwarth and S. Grimme, J. Chem. Phys., 2017,
     147, 034112. DOI: 10.1063/1.4993215
   * E. Caldeweyher, S. Ehlert, A. Hansen, H. Neugebauer, S. Spicher,
     C. Bannwarth and S. Grimme, J. Chem. Phys., 2019, 150, 154122.
     DOI: 10.1063/1.5090222
   * E. Caldeweyher, J.-M. Mewes, S. Ehlert and S. Grimme, Phys. Chem. Chem. Phys.
     2020, 22, 8499-8512. DOI: 10.1039/D0CP00502A
   
   for sTDA-xTB:
   * S. Grimme and C. Bannwarth, J. Chem. Phys., 2016, 145, 054103.
     DOI: 10.1063/1.4959605
   
   in the mass-spec context:
   * V. Asgeirsson, C. Bauer and S. Grimme, Chem. Sci., 2017, 8, 4879.
     DOI: 10.1039/c7sc00601b
   * J. Koopman and S. Grimme, ACS Omega 2019, 4, 12, 15120-15133.
     DOI: 10.1021/acsomega.9b02011
   
   for metadynamics refer to:
   * S. Grimme, J. Chem. Theory Comput., 2019, 155, 2847-2862
     DOI: 10.1021/acs.jctc.9b00143
   
   for SPH calculations refer to:
   * S. Spicher and S. Grimme, J. Chem. Theory Comput., 2021, 17, 1701-1714
     DOI: 10.1021/acs.jctc.0c01306
   
   with help from (in alphabetical order)
   P. Atkinson, C. Bannwarth, F. Bohle, G. Brandenburg, E. Caldeweyher
   M. Checinski, S. Dohm, S. Ehlert, S. Ehrlich, I. Gerasimov, J. Koopman
   C. Lavigne, S. Lehtola, F. März, M. Müller, F. Musil, H. Neugebauer
   J. Pisarek, C. Plett, P. Pracht, J. Seibert, P. Shushkov, S. Spicher
   M. Stahn, M. Steiner, T. Strunk, J. Stückrath, T. Rose, and J. Unsleber
   
 * started run on 2022/01/14 at 13:16:17.462     

           -------------------------------------------------
          |                Calculation Setup                |
           -------------------------------------------------

          program call               : xtb xtbopt.xyz --sp --alpb thf -P 6
          hostname                   : seskscpg007.prim.scp
          coordinate file            : xtbopt.xyz
          omp threads                :                     6
          number of atoms            :                    97
          number of electrons        :                   256
          charge                     :                     0
          spin                       :                   0.0
          first test random number   :      0.55295098479876

   ID    Z sym.   atoms
    1    7 N      1, 11, 88, 92
    2    6 C      2-6, 10, 12-15, 23, 24, 28, 32, 34, 38, 44, 45, 49, 53, 55,
                  59, 65, 66, 70, 74, 76, 80, 86, 87, 89, 91, 94
    3    1 H      7-9, 16-18, 20, 25-27, 29-31, 35-37, 39-41, 46-48, 50-52,
                  56-58, 60-62, 67-69, 71-73, 77-79, 81-85, 90, 93, 95-97
    4   77 Ir     19
    5    5 B      21, 42, 63
    6    8 O      22, 33, 43, 54, 64, 75

molecular fragmentation (1/2 indicates fragments):
111111111111111111111111111111111111111111111111111111111111111111111111
1111111111111222222222222
# atoms in fragment 1/2:    85    12
 fragment masses (1/2) :      730.32       93.11
CMA distance (Bohr)    :   8.960
constraining FC (au)   :  0.0500

           -------------------------------------------------
          |                 G F N 2 - x T B                 |
           -------------------------------------------------

        Reference                      10.1021/acs.jctc.8b01176
      * Hamiltonian:
        H0-scaling (s, p, d)           1.850000    2.230000    2.230000
        zeta-weighting                 0.500000
      * Dispersion:
        s8                             2.700000
        a1                             0.520000
        a2                             5.000000
        s9                             5.000000
      * Repulsion:
        kExp                           1.500000    1.000000
        rExp                           1.000000
      * Coulomb:
        alpha                          2.000000
        third order                    shell-resolved
        anisotropic                    true
        a3                             3.000000
        a5                             4.000000
        cn-shift                       1.200000
        cn-exp                         4.000000
        max-rad                        5.000000

      * Solvation model:               ALPB
        Solvent                        thf
        Parameter file                 internal GFN2-xTB/ALPB
        Dielectric constant                7.6000E+00
        Reference state                gsolv [1 M gas/solution]
        Free energy shift                  5.3248E-03 Eh       3.3414E+00 kcal/mol
        Temperature                        2.9815E+02 K
        Density                            8.8300E-01 kg/L
        Solvent mass                       7.2106E+01 g/mol
        Interaction kernel             P16
        Born radius scaling (c1)           1.7311E+00
        Born radii integrator          GBOBC
        Born offset                        0.0000E+00 a0       0.0000E+00 AA
        H-bond correction              true
        Ion screening                  false
        Surface tension                    1.0000E-05 Eh       1.5569E+01 dyn/cm
        Grid points                               230 per atom
q/qsh data taken from xtbrestart
CAMM data taken from xtbrestart

          ...................................................
          :                      SETUP                      :
          :.................................................:
          :  # basis functions                 244          :
          :  # atomic orbitals                 243          :
          :  # shells                          145          :
          :  # electrons                       256          :
          :  max. iterations                   250          :
          :  Hamiltonian                  GFN2-xTB          :
          :  restarted?                       true          :
          :  GBSA solvation                   true          :
          :  PC potential                    false          :
          :  electronic temp.          300.0000000     K    :
          :  accuracy                    1.0000000          :
          :  -> integral cutoff          0.2500000E+02      :
          :  -> integral neglect         0.1000000E-07      :
          :  -> SCF convergence          0.1000000E-05 Eh   :
          :  -> wf. convergence          0.1000000E-03 e    :
          :  Broyden damping             0.4000000          :
          ...................................................

 iter      E             dE          RMSdq      gap      omega  full diag
   1   -141.9314339 -0.141931E+03  0.136E-05    0.89       0.0  T
   2   -141.9314339  0.154614E-10  0.170E-05    0.89     597.1  T
   3   -141.9314339 -0.158309E-10  0.978E-06    0.89    1038.3  T

   *** convergence criteria satisfied after 3 iterations ***

         #    Occupation            Energy/Eh            Energy/eV
      -------------------------------------------------------------
         1        2.0000           -0.6762906             -18.4028
       ...           ...                  ...                  ...
       122        2.0000           -0.3592724              -9.7763
       123        2.0000           -0.3464259              -9.4267
       124        2.0000           -0.3351459              -9.1198
       125        2.0000           -0.3261745              -8.8757
       126        2.0000           -0.3192367              -8.6869
       127        2.0000           -0.3154106              -8.5828
       128        2.0000           -0.3115292              -8.4771 (HOMO)
       129                         -0.2788049              -7.5867 (LUMO)
       130                         -0.2516665              -6.8482
       131                         -0.2482587              -6.7555
       132                         -0.2430509              -6.6138
       133                         -0.2313843              -6.2963
       ...                                ...                  ...
       243                          3.7496409             102.0329
      -------------------------------------------------------------
                  HL-Gap            0.0327243 Eh            0.8905 eV
             Fermi-level           -0.2951590 Eh           -8.0317 eV

 SCC (total)                   0 d,  0 h,  0 min,  0.085 sec
 SCC setup                      ...        0 min,  0.003 sec (  3.748%)
 Dispersion                     ...        0 min,  0.003 sec (  3.052%)
 classical contributions        ...        0 min,  0.000 sec (  0.168%)
 integral evaluation            ...        0 min,  0.011 sec ( 13.399%)
 iterations                     ...        0 min,  0.034 sec ( 40.482%)
 molecular gradient             ...        0 min,  0.033 sec ( 38.243%)
 printout                       ...        0 min,  0.001 sec (  0.820%)

         :::::::::::::::::::::::::::::::::::::::::::::::::::::
         ::                     SUMMARY                     ::
         :::::::::::::::::::::::::::::::::::::::::::::::::::::
         :: total energy            -140.153432663130 Eh    ::
         :: total w/o Gsasa/hb      -140.113878406850 Eh    ::
         :: gradient norm              0.036163139194 Eh/a0 ::
         :: HOMO-LUMO gap              0.890473663488 eV    ::
         ::.................................................::
         :: SCC energy              -141.931433891556 Eh    ::
         :: -> isotropic ES            0.254818205496 Eh    ::
         :: -> anisotropic ES          0.013810542690 Eh    ::
         :: -> anisotropic XC          0.055361630505 Eh    ::
         :: -> dispersion             -0.132809582969 Eh    ::
         :: -> Gsolv                  -0.051345879451 Eh    ::
         ::    -> Gelec               -0.011791623172 Eh    ::
         ::    -> Gsasa               -0.042044749635 Eh    ::
         ::    -> Ghb                 -0.002834322089 Eh    ::
         ::    -> Gshift               0.005324815444 Eh    ::
         :: repulsion energy           1.770100899699 Eh    ::
         :: add. restraining           0.000000000000 Eh    ::
         :: total charge               0.000000001134 e     ::
         :::::::::::::::::::::::::::::::::::::::::::::::::::::

           -------------------------------------------------
          |                Property Printout                |
           -------------------------------------------------

    * Orbital Energies and Occupations

         #    Occupation            Energy/Eh            Energy/eV
      -------------------------------------------------------------
         1        2.0000           -0.6762906             -18.4028
       ...           ...                  ...                  ...
       116        2.0000           -0.4006897             -10.9033
       117        2.0000           -0.3908900             -10.6367
       118        2.0000           -0.3879191             -10.5558
       119        2.0000           -0.3871524             -10.5350
       120        2.0000           -0.3830794             -10.4241
       121        2.0000           -0.3815909             -10.3836
       122        2.0000           -0.3592724              -9.7763
       123        2.0000           -0.3464259              -9.4267
       124        2.0000           -0.3351459              -9.1198
       125        2.0000           -0.3261745              -8.8757
       126        2.0000           -0.3192367              -8.6869
       127        2.0000           -0.3154106              -8.5828
       128        2.0000           -0.3115292              -8.4771 (HOMO)
       129                         -0.2788049              -7.5867 (LUMO)
       130                         -0.2516665              -6.8482
       131                         -0.2482587              -6.7555
       132                         -0.2430509              -6.6138
       133                         -0.2313843              -6.2963
       134                         -0.2075438              -5.6476
       135                         -0.1916077              -5.2139
       136                         -0.1543702              -4.2006
       137                         -0.1291419              -3.5141
       138                         -0.1238523              -3.3702
       139                         -0.1137637              -3.0957
       ...                                ...                  ...
       243                          3.7496409             102.0329
      -------------------------------------------------------------
                  HL-Gap            0.0327243 Eh            0.8905 eV
             Fermi-level           -0.2951590 Eh           -8.0317 eV

     #   Z          covCN         q      C6AA      α(0)
     1   7 N        2.539    -0.126    23.779     7.242
     2   6 C        2.953     0.075    26.319     8.415
     3   6 C        2.918    -0.044    29.101     8.846
     4   6 C        2.923    -0.022    28.551     8.763
     5   6 C        2.915    -0.044    29.103     8.846
     6   6 C        2.891     0.049    26.906     8.504
     7   1 H        0.926     0.054     2.275     2.359
     8   1 H        0.926     0.057     2.236     2.339
     9   1 H        0.926     0.048     2.341     2.393
    10   6 C        2.953     0.071    26.419     8.430
    11   7 N        2.547    -0.136    23.967     7.271
    12   6 C        2.889     0.041    27.078     8.531
    13   6 C        2.915    -0.045    29.119     8.849
    14   6 C        2.922    -0.026    28.649     8.777
    15   6 C        2.918    -0.045    29.120     8.849
    16   1 H        0.926     0.047     2.358     2.401
    17   1 H        0.926     0.052     2.295     2.369
    18   1 H        0.926     0.074     2.041     2.234
    19  77 Ir       5.923    -0.149   387.393    36.397
    20   1 H        0.977     0.080     1.978     2.198
    21   5 B        2.632     0.406    15.976     6.751
    22   8 O        1.638    -0.404    20.932     6.176
    23   6 C        3.835     0.129    18.459     6.113
    24   6 C        3.755    -0.122    22.900     6.823
    25   1 H        0.925     0.054     2.267     2.355
    26   1 H        0.925     0.046     2.370     2.408
    27   1 H        0.925     0.052     2.289     2.366
    28   6 C        3.754    -0.110    22.666     6.789
    29   1 H        0.925     0.049     2.333     2.389
    30   1 H        0.925     0.043     2.409     2.427
    31   1 H        0.925     0.028     2.621     2.532
    32   6 C        3.842     0.131    18.438     6.108
    33   8 O        1.637    -0.403    20.923     6.174
    34   6 C        3.755    -0.123    22.914     6.826
    35   1 H        0.925     0.053     2.280     2.361
    36   1 H        0.925     0.047     2.356     2.400
    37   1 H        0.925     0.051     2.306     2.375
    38   6 C        3.754    -0.121    22.874     6.820
    39   1 H        0.925     0.046     2.365     2.405
    40   1 H        0.925     0.055     2.261     2.351
    41   1 H        0.925     0.047     2.361     2.403
    42   5 B        2.631     0.408    15.958     6.748
    43   8 O        1.637    -0.376    20.393     6.096
    44   6 C        3.840     0.128    18.477     6.115
    45   6 C        3.755    -0.128    23.007     6.839
    46   1 H        0.925     0.059     2.213     2.326
    47   1 H        0.925     0.057     2.240     2.340
    48   1 H        0.925     0.051     2.309     2.376
    49   6 C        3.755    -0.123    22.914     6.826
    50   1 H        0.925     0.050     2.321     2.382
    51   1 H        0.925     0.049     2.337     2.391
    52   1 H        0.925     0.052     2.295     2.369
    53   6 C        3.836     0.128    18.479     6.116
    54   8 O        1.637    -0.384    20.547     6.119
    55   6 C        3.755    -0.125    22.955     6.832
    56   1 H        0.925     0.054     2.266     2.354
    57   1 H        0.925     0.054     2.268     2.355
    58   1 H        0.925     0.050     2.320     2.382
    59   6 C        3.755    -0.125    22.955     6.832
    60   1 H        0.925     0.053     2.282     2.362
    61   1 H        0.925     0.054     2.273     2.358
    62   1 H        0.925     0.046     2.376     2.410
    63   5 B        2.629     0.407    15.986     6.756
    64   8 O        1.637    -0.375    20.387     6.095
    65   6 C        3.834     0.125    18.529     6.124
    66   6 C        3.755    -0.133    23.112     6.855
    67   1 H        0.925     0.061     2.184     2.311
    68   1 H        0.925     0.056     2.247     2.344
    69   1 H        0.925     0.052     2.293     2.368
    70   6 C        3.755    -0.129    23.040     6.844
    71   1 H        0.925     0.061     2.188     2.313
    72   1 H        0.925     0.052     2.295     2.369
    73   1 H        0.925     0.051     2.302     2.373
    74   6 C        3.829     0.127    18.502     6.120
    75   8 O        1.637    -0.376    20.399     6.097
    76   6 C        3.755    -0.125    22.961     6.832
    77   1 H        0.925     0.052     2.295     2.369
    78   1 H        0.925     0.054     2.268     2.355
    79   1 H        0.925     0.057     2.230     2.335
    80   6 C        3.755    -0.122    22.904     6.824
    81   1 H        0.925     0.041     2.437     2.441
    82   1 H        0.925     0.050     2.324     2.384
    83   1 H        0.925     0.056     2.250     2.346
    84   1 H        0.926     0.054     2.267     2.355
    85   1 H        0.926     0.050     2.314     2.379
    86   6 C        2.819     0.074    26.329     8.407
    87   6 C        2.911    -0.055    29.372     8.887
    88   7 N        1.842    -0.266    27.752     7.807
    89   6 C        2.923     0.066    26.527     8.446
    90   1 H        0.926     0.028     2.617     2.530
    91   6 C        2.944     0.187    24.003     8.035
    92   7 N        1.839    -0.290    28.376     7.894
    93   1 H        0.925     0.032     2.558     2.501
    94   6 C        3.762    -0.139    23.226     6.870
    95   1 H        0.925     0.077     2.015     2.220
    96   1 H        0.925     0.077     2.013     2.219
    97   1 H        0.925     0.070     2.082     2.256

 Mol. C6AA /au·bohr⁶  :      99614.149194
 Mol. C8AA /au·bohr⁸  :    2647100.361118
 Mol. α(0) /au        :        487.956060


Wiberg/Mayer (AO) data.
largest (>0.10) Wiberg bond orders for each atom

 ---------------------------------------------------------------------------
     #   Z sym  total        # sym  WBO       # sym  WBO       # sym  WBO
 ---------------------------------------------------------------------------
     1   7 N    3.401 --     6 C    1.391     2 C    1.311    19 Ir   0.436
     2   6 C    3.978 --     3 C    1.345     1 N    1.311    10 C    1.095
     3   6 C    3.987 --     4 C    1.487     2 C    1.345     9 H    0.962
                             6 C    0.106
     4   6 C    3.978 --     3 C    1.487     5 C    1.380    84 H    0.969
     5   6 C    3.977 --     6 C    1.460     4 C    1.380     8 H    0.968
     6   6 C    3.978 --     5 C    1.460     1 N    1.391     7 H    0.957
                             3 C    0.106
     7   1 H    0.997 --     6 C    0.957
     8   1 H    0.996 --     5 C    0.968
     9   1 H    0.997 --     3 C    0.962
    10   6 C    3.976 --    15 C    1.352    11 N    1.296     2 C    1.095
    11   7 N    3.398 --    12 C    1.377    10 C    1.296    19 Ir   0.432
    12   6 C    3.973 --    13 C    1.464    11 N    1.377    18 H    0.948
                            15 C    0.105
    13   6 C    3.981 --    12 C    1.464    14 C    1.379    17 H    0.969
    14   6 C    3.979 --    15 C    1.480    13 C    1.379    85 H    0.969
    15   6 C    3.989 --    14 C    1.480    10 C    1.352    16 H    0.962
                            12 C    0.105
    16   1 H    0.997 --    15 C    0.962
    17   1 H    0.997 --    13 C    0.969
    18   1 H    0.994 --    12 C    0.948
    19  77 Ir   5.187 --    63 B    0.857    42 B    0.847    21 B    0.717
                            86 C    0.609    20 H    0.523     1 N    0.436
                            11 N    0.432
    20   1 H    0.992 --    19 Ir   0.523    86 C    0.343
    21   5 B    3.277 --    33 O    1.113    22 O    1.100    19 Ir   0.717
    22   8 O    2.199 --    21 B    1.100    23 C    0.940
    23   6 C    3.942 --    24 C    0.996    28 C    0.990    32 C    0.941
                            22 O    0.940
    24   6 C    3.993 --    23 C    0.996    26 H    0.983    27 H    0.983
                            25 H    0.983
    25   1 H    0.997 --    24 C    0.983
    26   1 H    0.997 --    24 C    0.983
    27   1 H    0.997 --    24 C    0.983
    28   6 C    3.996 --    23 C    0.990    31 H    0.985    30 H    0.984
                            29 H    0.984
    29   1 H    0.997 --    28 C    0.984
    30   1 H    0.998 --    28 C    0.984
    31   1 H    0.999 --    28 C    0.985
    32   6 C    3.938 --    38 C    0.997    34 C    0.991    23 C    0.941
                            33 O    0.937
    33   8 O    2.202 --    21 B    1.113    32 C    0.937
    34   6 C    3.993 --    32 C    0.991    36 H    0.983    37 H    0.982
                            35 H    0.981
    35   1 H    0.997 --    34 C    0.981
    36   1 H    0.997 --    34 C    0.983
    37   1 H    0.997 --    34 C    0.982
    38   6 C    3.994 --    32 C    0.997    41 H    0.984    39 H    0.983
                            40 H    0.983
    39   1 H    0.998 --    38 C    0.983
    40   1 H    0.997 --    38 C    0.983
    41   1 H    0.997 --    38 C    0.984
    42   5 B    3.342 --    43 O    1.131    54 O    1.108    19 Ir   0.847
    43   8 O    2.236 --    42 B    1.131    44 C    0.933
    44   6 C    3.935 --    45 C    0.997    49 C    0.991    53 C    0.940
                            43 O    0.933
    45   6 C    3.992 --    44 C    0.997    48 H    0.983    47 H    0.982
                            46 H    0.982
    46   1 H    0.996 --    45 C    0.982
    47   1 H    0.997 --    45 C    0.982
    48   1 H    0.996 --    45 C    0.983
    49   6 C    3.994 --    44 C    0.991    50 H    0.983    51 H    0.982
                            52 H    0.980
    50   1 H    0.997 --    49 C    0.983
    51   1 H    0.997 --    49 C    0.982
    52   1 H    0.997 --    49 C    0.980
    53   6 C    3.936 --    55 C    0.997    59 C    0.992    44 C    0.940
                            54 O    0.931
    54   8 O    2.226 --    42 B    1.108    53 C    0.931
    55   6 C    3.993 --    53 C    0.997    58 H    0.983    57 H    0.983
                            56 H    0.982
    56   1 H    0.997 --    55 C    0.982
    57   1 H    0.997 --    55 C    0.983
    58   1 H    0.996 --    55 C    0.983
    59   6 C    3.994 --    53 C    0.992    62 H    0.983    61 H    0.983
                            60 H    0.981
    60   1 H    0.997 --    59 C    0.981
    61   1 H    0.996 --    59 C    0.983
    62   1 H    0.998 --    59 C    0.983
    63   5 B    3.367 --    75 O    1.123    64 O    1.120    19 Ir   0.857
    64   8 O    2.233 --    63 B    1.120    65 C    0.935
    65   6 C    3.935 --    70 C    0.997    66 C    0.991    74 C    0.937
                            64 O    0.935
    66   6 C    3.992 --    65 C    0.991    69 H    0.983    68 H    0.982
                            67 H    0.979
    67   1 H    0.996 --    66 C    0.979
    68   1 H    0.997 --    66 C    0.982
    69   1 H    0.996 --    66 C    0.983
    70   6 C    3.992 --    65 C    0.997    72 H    0.983    73 H    0.982
                            71 H    0.982
    71   1 H    0.996 --    70 C    0.982
    72   1 H    0.996 --    70 C    0.983
    73   1 H    0.997 --    70 C    0.982
    74   6 C    3.933 --    76 C    0.996    80 C    0.992    65 C    0.937
                            75 O    0.934
    75   8 O    2.239 --    63 B    1.123    74 C    0.934
    76   6 C    3.992 --    74 C    0.996    77 H    0.983    78 H    0.982
                            79 H    0.981
    77   1 H    0.996 --    76 C    0.983
    78   1 H    0.997 --    76 C    0.982
    79   1 H    0.997 --    76 C    0.981
    80   6 C    3.995 --    74 C    0.992    81 H    0.984    83 H    0.983
                            82 H    0.983
    81   1 H    0.998 --    80 C    0.984
    82   1 H    0.997 --    80 C    0.983
    83   1 H    0.996 --    80 C    0.983
    84   1 H    0.996 --     4 C    0.969
    85   1 H    0.996 --    14 C    0.969
    86   6 C    3.921 --    88 N    1.394    87 C    1.334    19 Ir   0.609
                            20 H    0.343
    87   6 C    3.989 --    89 C    1.460    86 C    1.334    90 H    0.964
                            91 C    0.102
    88   7 N    3.088 --    86 C    1.394    91 C    1.393
    89   6 C    3.978 --    87 C    1.460    92 N    1.408    93 H    0.961
    90   1 H    0.999 --    87 C    0.964
    91   6 C    3.958 --    88 N    1.393    92 N    1.384    94 C    1.022
                            87 C    0.102
    92   7 N    3.041 --    89 C    1.408    91 C    1.384
    93   1 H    0.997 --    89 C    0.961
    94   6 C    3.991 --    91 C    1.022    97 H    0.981    95 H    0.970
                            96 H    0.957
    95   1 H    0.993 --    94 C    0.970
    96   1 H    0.994 --    94 C    0.957
    97   1 H    0.995 --    94 C    0.981
 ---------------------------------------------------------------------------

Topologies differ in total number of bonds
Writing topology from bond orders to xtbtopo.mol

molecular dipole:
                 x           y           z       tot (Debye)
 q only:        0.564       0.605      -1.346
   full:       -0.990       0.709      -2.035       6.027
molecular quadrupole (traceless):
                xx          xy          yy          xz          yz          zz
 q only:       17.898       1.644      -2.723       9.720      15.423     -15.175
  q+dip:       21.102       4.355       1.070       6.622      20.459     -22.172
   full:       18.656       4.850       2.896       4.931      17.856     -21.552


           -------------------------------------------------
          | TOTAL ENERGY             -140.153432663130 Eh   |
          | GRADIENT NORM               0.036163139194 Eh/α |
          | HOMO-LUMO GAP               0.890473663488 eV   |
           -------------------------------------------------

------------------------------------------------------------------------
 * finished run on 2022/01/14 at 13:16:17.575     
------------------------------------------------------------------------
 total:
 * wall-time:     0 d,  0 h,  0 min,  0.113 sec
 *  cpu-time:     0 d,  0 h,  0 min,  0.649 sec
 * ratio c/w:     5.730 speedup
 SCF:
 * wall-time:     0 d,  0 h,  0 min,  0.087 sec
 *  cpu-time:     0 d,  0 h,  0 min,  0.508 sec
 * ratio c/w:     5.872 speedup

