95
 energy: -136.686888283091 gnorm: 0.075915367543 xtb: 6.4.1 (1a32961)
N        -0.96510000000000   -2.11530000000000   -0.24090000000000
C        -2.24700000000000   -1.69840000000000   -0.36220000000000
C        -3.14040000000000   -2.36820000000000   -1.21200000000000
C        -2.70220000000000   -3.47560000000000   -1.93050000000000
C        -1.37780000000000   -3.89880000000000   -1.78760000000000
C        -0.54290000000000   -3.18670000000000   -0.93510000000000
H         0.49810000000000   -3.45630000000000   -0.78940000000000
H        -0.99570000000000   -4.76030000000000   -2.32770000000000
H        -4.16500000000000   -2.02890000000000   -1.31830000000000
C        -2.62130000000000   -0.50950000000000    0.44100000000000
N        -1.62600000000000    0.07330000000000    1.16020000000000
C        -1.89680000000000    1.15240000000000    1.91690000000000
C        -3.17230000000000    1.70330000000000    1.99650000000000
C        -4.20510000000000    1.11740000000000    1.26270000000000
C        -3.92610000000000    0.00250000000000    0.47820000000000
H        -4.71960000000000   -0.46420000000000   -0.09520000000000
H        -3.34630000000000    2.57510000000000    2.62070000000000
H        -1.04450000000000    1.57420000000000    2.43690000000000
Ir        0.42150000000000   -0.81650000000000    0.91330000000000
H         0.87260000000000   -2.23030000000000    1.54050000000000
B         0.50670000000000    0.41560000000000   -0.81540000000000
O         0.19500000000000   -0.04700000000000   -2.09150000000000
C         0.00650000000000    1.10040000000000   -2.95430000000000
C         0.49020000000000    0.74740000000000   -4.35780000000000
H         1.51610000000000    0.37380000000000   -4.33700000000000
H         0.44730000000000    1.62240000000000   -5.01670000000000
H        -0.14740000000000   -0.03390000000000   -4.78430000000000
C        -1.50120000000000    1.39560000000000   -2.96670000000000
H        -1.75370000000000    2.21460000000000   -3.64850000000000
H        -2.03200000000000    0.49450000000000   -3.28930000000000
H        -1.85170000000000    1.65210000000000   -1.96220000000000
C         0.84230000000000    2.20670000000000   -2.22040000000000
O         0.75200000000000    1.78260000000000   -0.83690000000000
C         2.32930000000000    2.18620000000000   -2.59900000000000
H         2.74130000000000    1.18500000000000   -2.45750000000000
H         2.48870000000000    2.51300000000000   -3.63180000000000
H         2.87200000000000    2.86270000000000   -1.93200000000000
C         0.28440000000000    3.62290000000000   -2.33660000000000
H        -0.72650000000000    3.69040000000000   -1.92910000000000
H         0.92130000000000    4.31480000000000   -1.77610000000000
H         0.26430000000000    3.94810000000000   -3.38320000000000
B         1.56300000000000    0.60960000000000    1.84840000000000
O         2.92780000000000    0.55230000000000    2.15020000000000
C         3.36330000000000    1.88660000000000    2.50260000000000
C         4.53140000000000    1.78590000000000    3.47740000000000
H         4.27910000000000    1.16090000000000    4.33690000000000
H         5.39390000000000    1.33790000000000    2.97340000000000
H         4.82390000000000    2.77870000000000    3.83820000000000
C         3.79700000000000    2.56850000000000    1.19670000000000
H         4.20020000000000    3.57090000000000    1.37680000000000
H         4.56740000000000    1.95560000000000    0.72110000000000
H         2.95240000000000    2.63260000000000    0.50540000000000
C         2.05040000000000    2.50090000000000    3.09320000000000
O         1.03750000000000    1.81620000000000    2.31910000000000
C         1.89100000000000    4.00450000000000    2.88650000000000
H         1.87290000000000    4.25440000000000    1.82410000000000
H         0.94940000000000    4.34260000000000    3.33170000000000
H         2.71080000000000    4.55150000000000    3.36630000000000
C         1.82470000000000    2.13200000000000    4.56520000000000
H         1.92610000000000    1.05330000000000    4.71320000000000
H         2.52610000000000    2.65280000000000    5.22540000000000
H         0.80630000000000    2.41580000000000    4.84900000000000
B         2.27820000000000   -1.33090000000000    0.17410000000000
O         2.89460000000000   -2.57740000000000    0.38450000000000
C         4.26930000000000   -2.48200000000000   -0.07210000000000
C         5.10900000000000   -2.05380000000000    1.14010000000000
H         4.76350000000000   -1.08740000000000    1.51750000000000
H         4.98050000000000   -2.79470000000000    1.93590000000000
H         6.17420000000000   -1.99290000000000    0.89300000000000
C         4.71950000000000   -3.84660000000000   -0.58470000000000
H         4.75280000000000   -4.56130000000000    0.24420000000000
H         5.72330000000000   -3.78370000000000   -1.02010000000000
H         4.03500000000000   -4.23600000000000   -1.34170000000000
C         4.16440000000000   -1.36220000000000   -1.16300000000000
O         3.08520000000000   -0.55030000000000   -0.65400000000000
C         5.40720000000000   -0.48870000000000   -1.31550000000000
H         6.27320000000000   -1.09010000000000   -1.61530000000000
H         5.23300000000000    0.26930000000000   -2.08590000000000
H         5.64270000000000    0.02650000000000   -0.38240000000000
C         3.71800000000000   -1.89830000000000   -2.53110000000000
H         2.82530000000000   -2.52160000000000   -2.42740000000000
H         3.46090000000000   -1.05250000000000   -3.17550000000000
H         4.50570000000000   -2.48290000000000   -3.01790000000000
H        -3.38500000000000   -4.00130000000000   -2.59310000000000
H        -5.21400000000000    1.52080000000000    1.29960000000000
C         0.23590000000000   -1.68140000000000    2.96030000000000
C        -0.99716103621411   -2.10592305309520    3.45298226603925
C         1.32061579532155   -1.83315208167422    3.83198689883625
C        -1.08723284450193   -2.60858360552764    4.74174043850770
H        -1.89125139208368   -2.07808304507213    2.84421061887923
C         1.13981105515870   -2.37887019812291    5.08952737092969
H         2.31491079128229   -1.57381525950290    3.49584293488475
N        -0.04649212558044   -2.77220205530212    5.55493287305896
H        -2.03683557614824   -2.94435029592454    5.14366689590784
H         1.97943839293190   -2.55641850881344    5.75269155371061
95
 energy: -136.693414884719 gnorm: 0.047524255385 xtb: 6.4.1 (1a32961)
N        -0.96039396916196   -2.09865127084369   -0.25454608853021
C        -2.23894933390168   -1.68968512619210   -0.36568656372630
C        -3.13438581111614   -2.36238180315167   -1.20601483295979
C        -2.70406573284896   -3.46375122646820   -1.92194379230547
C        -1.38413002872661   -3.88246421460077   -1.78327756591999
C        -0.55328734997061   -3.16724164777908   -0.94272632718425
H         0.48042934616011   -3.44733399028771   -0.79324204794733
H        -1.00780279465200   -4.74244519904860   -2.31850445226281
H        -4.15497977970200   -2.02720386239301   -1.30942395634403
C        -2.61017998624379   -0.51243118958161    0.43417616110794
N        -1.61735985731281    0.06913905905526    1.14417173430550
C        -1.89648370337302    1.13890888110073    1.89324976470102
C        -3.16409577739738    1.68636313731283    1.98328881385590
C        -4.19539542585431    1.10200142918592    1.25682553684983
C        -3.91371985205458   -0.00406508254251    0.47592343534303
H        -4.70518507731093   -0.46795618177101   -0.09236573852966
H        -3.33925382687798    2.54881923232982    2.61087239966101
H        -1.05366093981445    1.55718784687658    2.42270012082520
Ir        0.42150000000000   -0.81650000000000    0.91330000000000
H         0.87260000000000   -2.23030000000000    1.54050000000000
B         0.49038905079140    0.42515700941018   -0.79037377108692
O         0.17493844337570   -0.03435509689695   -2.06232784952470
C         0.01005526106111    1.09755367619657   -2.94306436956447
C         0.48913578034160    0.74816378704987   -4.34796295912395
H         1.50815929209923    0.37161203342404   -4.32687012694914
H         0.44409338079559    1.62377686509225   -4.99613002245827
H        -0.14962547883506   -0.02769871959764   -4.76852445557933
C        -1.49410583402538    1.39961481505814   -2.96914752906400
H        -1.73251719979889    2.21260746646023   -3.65317327180152
H        -2.02398375476676    0.50251327539518   -3.28933612843540
H        -1.84080135432919    1.65439374254269   -1.96749829243822
C         0.83156600794447    2.20763868814976   -2.21186238388827
O         0.75523468433579    1.78065692641672   -0.83462000141746
C         2.31402122516161    2.19165294837395   -2.59941057801409
H         2.71857502413847    1.19260583374902   -2.44983305161370
H         2.46531267831117    2.51330978124398   -3.62908529206892
H         2.85620718874867    2.86642898728101   -1.93800796399256
C         0.27972699442394    3.62357420174597   -2.33842450364113
H        -0.72353175375339    3.69234675631714   -1.92604067716522
H         0.91933108919214    4.30719840887245   -1.78172262662988
H         0.26196884937445    3.93616011605667   -3.38256124757260
B         1.56406888756125    0.61457113744414    1.86090453749603
O         2.92480743283818    0.56352179273314    2.13895400744141
C         3.36312671555265    1.88565283390610    2.51021415751245
C         4.53321354439238    1.78840501884268    3.48052263208234
H         4.28151292430459    1.16020322264772    4.33094286679943
H         5.38827606020877    1.34454929786977    2.97241738458893
H         4.81550040446961    2.77885595147087    3.83629914642774
C         3.79836353470382    2.57302636569916    1.21155787215424
H         4.19957282005520    3.56866589232151    1.39596222701818
H         4.56262832999569    1.96200707814684    0.73433772936666
H         2.95013531750066    2.62576989631125    0.53033290672685
C         2.05320019006291    2.50417362820351    3.09056164613659
O         1.04024794836867    1.80761117798366    2.33805780880066
C         1.89376189738302    4.00618221692453    2.88992859342451
H         1.86812317345391    4.24983973646265    1.83165428376572
H         0.95643373423762    4.33504176495794    3.33692681073545
H         2.71424922081173    4.54232234299922    3.36610081343669
C         1.83230456637294    2.13952242066254    4.56271195026299
H         1.93464604145206    1.06372699363906    4.70127487268748
H         2.53335593635450    2.66091310980931    5.21179850311587
H         0.81780084415401    2.41758670631879    4.84761658937758
B         2.27820000000000   -1.33090000000000    0.17410000000000
O         2.90124923501054   -2.56117125814118    0.39122129248650
C         4.26565502260476   -2.48290437373273   -0.07846974355853
C         5.11046879412927   -2.05835217379141    1.12720498041157
H         4.75462726639818   -1.09819061690963    1.49866986044006
H         4.97988462266135   -2.79429227557394    1.91987969716510
H         6.16799423776166   -1.99810806278918    0.87482478394231
C         4.72035934912004   -3.84477777274814   -0.58894613388533
H         4.75049309129198   -4.54945892257361    0.24078442363720
H         5.71799452876219   -3.77270121937458   -1.02130330361535
H         4.03468688203638   -4.23220323904095   -1.33769857490741
C         4.16584441465844   -1.35955973172028   -1.15828442243534
O         3.07309319632673   -0.56342390741912   -0.66204464593632
C         5.40890696231147   -0.49096811656706   -1.31588647524840
H         6.26503534727638   -1.09664216178104   -1.61185918505755
H         5.23041847412097    0.26015175743077   -2.08412914680908
H         5.63692165453089    0.02343831207061   -0.38685856564330
C         3.72899168565354   -1.89842073141237   -2.52652752968235
H         2.83716038136306   -2.51425263639690   -2.41832057614148
H         3.47170073590889   -1.05672784352520   -3.16814476439794
H         4.51931198779986   -2.47507880103419   -3.00420948439681
H        -3.38349236936569   -3.98854264466885   -2.57967433650695
H        -5.19955397868817    1.50254099590320    1.29797842312839
C         0.23590000000001   -1.68140000000002    2.96029999999999
C        -0.99952678410872   -2.10418653881062    3.45136083381172
C         1.31671298883690   -1.82363274121212    3.84190368043273
C        -1.09210129745178   -2.59953688380520    4.74304664801150
H        -1.89127193010961   -2.08044310136944    2.84034741633892
C         1.12708290793605   -2.36271052444227    5.09993024558565
H         2.31103052270392   -1.56239977016225    3.51108249557439
N        -0.05776068806055   -2.75512632604682    5.55774111634684
H        -2.04210761065460   -2.93524738542369    5.14285914271054
H         1.96232104237534   -2.53446938580199    5.76903628456939
95
 energy: -136.695357906616 gnorm: 0.038011041942 xtb: 6.4.1 (1a32961)
N        -0.95130983193017   -2.08990249286362   -0.26542638002834
C        -2.22794671069730   -1.68277431368365   -0.37014404412492
C        -3.12921066384394   -2.35501405998608   -1.20381992834826
C        -2.70743692864257   -3.45377324756897   -1.92051875555165
C        -1.38769733648428   -3.87229392626248   -1.78678859849174
C        -0.55646626605163   -3.15666188242776   -0.95220446657862
H         0.47614369703420   -3.44020613612934   -0.81148736815822
H        -1.01736382508869   -4.73215547027291   -2.31983024695599
H        -4.14894761788634   -2.02195106896210   -1.29768335523222
C        -2.59559972779265   -0.51465718932617    0.42653754021419
N        -1.60557910856813    0.06273891746614    1.13751034326992
C        -1.89152788950353    1.12630791962822    1.88256870573541
C        -3.15527285956558    1.67293436579048    1.97675653784975
C        -4.18692911256857    1.08857563535752    1.25120395525229
C        -3.90027566815885   -0.00995549083445    0.46916987785964
H        -4.68926918044454   -0.47633398110838   -0.09587971902880
H        -3.33153432458594    2.52978099265426    2.60604186127530
H        -1.05406944072842    1.55060922892053    2.41246008659906
Ir        0.42150000000000   -0.81650000000000    0.91330000000000
H         0.87260000000000   -2.23030000000000    1.54050000000000
B         0.49449327347162    0.43666797499325   -0.76771943486768
O         0.15496021060935   -0.02307623370218   -2.03160728875744
C         0.00457301966259    1.09646152155698   -2.92223626491537
C         0.48828814300512    0.74252384620238   -4.32477453590147
H         1.50361613210714    0.36253411863678   -4.30506447894474
H         0.44304309147382    1.62146120747847   -4.96271954492645
H        -0.15433755097349   -0.02711775162246   -4.74408137640913
C        -1.49790856652852    1.40765752929140   -2.96758189119416
H        -1.71813840667861    2.21699178520917   -3.65693951342779
H        -2.02695190623087    0.51299619290894   -3.28896181904013
H        -1.84712376484163    1.66545066881132   -1.96994201128902
C         0.82288826900805    2.20896680015745   -2.19786983343591
O         0.75895661912182    1.78581145139506   -0.82541385088271
C         2.30263749966148    2.19871867397528   -2.59618074563696
H         2.70466115457097    1.20138905427617   -2.44007141793819
H         2.44023654854659    2.51330950938209   -3.62666783316388
H         2.84467548178430    2.87796906967000   -1.94301185405627
C         0.26795108142880    3.62323133373395   -2.33297120255608
H        -0.73100018836096    3.69737755914040   -1.91678461373933
H         0.91264184303782    4.30546325718140   -1.78571086509785
H         0.25038989426338    3.91945455452007   -3.37831268868558
B         1.56727833935631    0.62104989833249    1.86770987141089
O         2.92290307204248    0.57271239080008    2.12938297900453
C         3.36199013512824    1.88542581455878    2.51447709299049
C         4.53094925524556    1.78746351086542    3.48681388097802
H         4.28324875606690    1.15438198918252    4.33175096742105
H         5.38353271153032    1.35140466622484    2.97368527607094
H         4.80301678599998    2.77748337742519    3.84084492735744
C         3.80116768505738    2.58305431866440    1.22300480229110
H         4.19868741259544    3.57467116841742    1.41585576958625
H         4.56464504125269    1.97516971093523    0.74537273680088
H         2.95126644368620    2.63027197090587    0.54662649662994
C         2.05408570041284    2.50236823342862    3.09431913629576
O         1.04236139539771    1.79899531912088    2.35539027507826
C         1.89574701805520    4.00414929014300    2.89187444418997
H         1.86189613109861    4.24626779582540    1.83572385826741
H         0.96350272403683    4.32886455025277    3.34545426877464
H         2.71986621627909    4.53155327398347    3.36321270167173
C         1.84399836213099    2.14608631503059    4.57085273674113
H         1.94913814009179    1.07183999952430    4.70396185107726
H         2.54752578836775    2.67121463521823    5.20858801690891
H         0.83155973272321    2.42069379166563    4.85732265297273
B         2.27819999999999   -1.33090000000001    0.17410000000000
O         2.90407673351854   -2.54827555663699    0.40000254224534
C         4.25896148704046   -2.48012404969838   -0.08015662378319
C         5.11559072726145   -2.05986588527529    1.11825065498603
H         4.75485403649842   -1.10300007161249    1.48765439444906
H         4.98675957761740   -2.79503616944556    1.90827369653225
H         6.16713804931734   -2.00015311945321    0.85611507583497
C         4.71250631605685   -3.84128118228506   -0.59457023784042
H         4.74575358569520   -4.53996340095666    0.23617257867837
H         5.70580336506370   -3.75929534378762   -1.02622582956052
H         4.02660002098046   -4.23009245849119   -1.33875798122949
C         4.16061623502589   -1.35834354289406   -1.15752860235789
O         3.05982941237382   -0.57253081855235   -0.67067994627689
C         5.40463557007721   -0.49069883813957   -1.31093473514123
H         6.25298195914639   -1.10341418542923   -1.60174063333134
H         5.22713501886278    0.25377349308467   -2.08182409966434
H         5.62948059253995    0.02570512413903   -0.38505830436620
C         3.73871950713765   -1.90017053314677   -2.52987937945613
H         2.84820769359394   -2.51368152106995   -2.42136432985952
H         3.48490580807255   -1.06005615786919   -3.17138343075246
H         4.53561633753597   -2.47174601221431   -2.99484099777589
H        -3.38897293786895   -3.97936421391239   -2.57079551111331
H        -5.19020740263178    1.48321580669587    1.29771609054294
C         0.23590000000002   -1.68140000000007    2.96029999999998
C        -1.00337883078353   -2.10122045938367    3.44593604532964
C         1.30950131532450   -1.80800273720648    3.85562839113874
C        -1.10496231283468   -2.58185373460801    4.74351072626281
H        -1.89005827324106   -2.08664830876015    2.82782145274061
C         1.10730457779253   -2.33226784060468    5.11791831938674
H         2.30465061345202   -1.54371406565677    3.53222966781372
N        -0.07913124589006   -2.72312937050033    5.56668750187975
H        -2.05789891274344   -2.91562030365248    5.13815986047865
H         1.93607717633859   -2.48973332978537    5.79874692027658
95
 energy: -136.696288759112 gnorm: 0.037442529305 xtb: 6.4.1 (1a32961)
N        -0.94041054967541   -2.08581797904666   -0.27821761581528
C        -2.21805867661264   -1.67937367720197   -0.37587034192103
C        -3.12529566800907   -2.35202205686938   -1.20399878115106
C        -2.70996828294523   -3.45083094663037   -1.92247468114222
C        -1.38790909354295   -3.86858918640054   -1.79688970407869
C        -0.55195005850944   -3.15130649577757   -0.96843032336042
H         0.48090723799936   -3.43842659696775   -0.83469586914789
H        -1.02227159413131   -4.72934255623361   -2.33033425305617
H        -4.14517380638893   -2.01800120188697   -1.29004136583259
C        -2.58354470643069   -0.51579483313569    0.42116666678130
N        -1.59410392167481    0.06147160682396    1.13344782287309
C        -1.88401143718431    1.12352172679983    1.87761942810732
C        -3.14850665694212    1.66647882632111    1.97562316348375
C        -4.18094162149220    1.07982037574059    1.25026811470912
C        -3.89007802200371   -0.01406002899410    0.46518289170721
H        -4.67641879973343   -0.48167183059113   -0.10195818280047
H        -3.32655231821735    2.51982876704044    2.60771250570337
H        -1.05015981386606    1.55060263741629    2.41137530773922
Ir        0.42150000000000   -0.81650000000000    0.91330000000000
H         0.87260000000000   -2.23030000000001    1.54050000000000
B         0.47945709450707    0.45305241455797   -0.74639011445791
O         0.13139897488346   -0.01206525835909   -2.00553618831320
C        -0.00558284320937    1.09870367481537   -2.90299102929205
C         0.48554348240463    0.73499664189144   -4.30134945976827
H         1.49824729109824    0.34917428020619   -4.27589192430733
H         0.44713154533433    1.61420760334344   -4.93840911601865
H        -0.16031986820884   -0.03137628975893   -4.72085881012452
C        -1.50687732536487    1.41823280585886   -2.96527667060174
H        -1.71168876605296    2.22555693931709   -3.66083041571063
H        -2.03655451576998    0.52511985343111   -3.28881452665060
H        -1.86447967804858    1.68206404765888   -1.97249242877984
C         0.81343025227422    2.21352246425322   -2.18288598024621
O         0.75934717483670    1.79645643111607   -0.81179660619105
C         2.29140238191936    2.20582960249950   -2.59141659307335
H         2.69589332331382    1.21061022048018   -2.42943430193987
H         2.41871062592260    2.51269985437192   -3.62495967535271
H         2.83455338022987    2.89233517139914   -1.94725511276425
C         0.25639694267491    3.62727218088291   -2.32487021380342
H        -0.74002970151996    3.70488754751191   -1.90402122096732
H         0.90494309259810    4.31361844553399   -1.78783688363109
H         0.23370816670782    3.91084809763652   -3.37316138508412
B         1.56818282129711    0.62151689163679    1.87773836025915
O         2.92400417562952    0.57753366251068    2.12071753231147
C         3.36199409214841    1.88486864071031    2.51778620405720
C         4.53093454307736    1.78422421210180    3.49148203740946
H         4.28598446404458    1.14465122900197    4.33196987498042
H         5.38555896380522    1.35640628051761    2.97535370223258
H         4.79533652575038    2.77398707746922    3.85062128049228
C         3.80410085723622    2.59415265240681    1.23264880592711
H         4.19750827280586    3.58475868771841    1.43510704583695
H         4.57081776885794    1.99160694606515    0.75387603029541
H         2.95522970801308    2.64212198720108    0.55559672466949
C         2.05510117084592    2.49999733699938    3.10153611726145
O         1.04190782584800    1.79057174355280    2.37448360203060
C         1.89473810500155    4.00198657315127    2.89555488945133
H         1.85172334707520    4.24190541638486    1.83938040793103
H         0.96708847967280    4.32753629775458    3.35725184319129
H         2.72425794293214    4.52713031983486    3.35877618699631
C         1.85621327765295    2.15168776216554    4.58262459786074
H         1.96504758252969    1.07848993660854    4.71838272567409
H         2.56370437209203    2.68250681313944    5.21020022172949
H         0.84524103896080    2.42517973368039    4.87385605978354
B         2.27819999999998   -1.33090000000001    0.17409999999999
O         2.90677555915919   -2.54067226789702    0.40966275086203
C         4.25458994308238   -2.47792867269164   -0.08110296208217
C         5.12255050815677   -2.06007024731496    1.11112377834968
H         4.76297655735258   -1.10413405360129    1.48325668314357
H         4.99874316772798   -2.79650722664757    1.90024296018568
H         6.17086376591009   -2.00052573384159    0.83920395948660
C         4.70406180624113   -3.84040084265754   -0.59848995065563
H         4.74199646977963   -4.53782735666854    0.23262124071950
H         5.69453074530851   -3.75446126958090   -1.03445738339701
H         4.01489404948084   -4.22949946326755   -1.33910605852661
C         4.15576811738575   -1.35709877828394   -1.15919866087988
O         3.04876938536238   -0.57740921615824   -0.68103452219528
C         5.39945209545060   -0.48698143567992   -1.30718948054824
H         6.24712586915778   -1.10324298258210   -1.59076054421846
H         5.22561429107673    0.25364341735091   -2.08213178978046
H         5.61925676876486    0.03238929925071   -0.38213102088878
C         3.74753230271688   -1.90193518494408   -2.53557199433159
H         2.85791532929950   -2.51703236671279   -2.43309692565742
H         3.49873277377805   -1.06282465470016   -3.17993484593499
H         4.55148898413592   -2.47119266258051   -2.98967630279845
H        -3.39563364245643   -3.97657937822916   -2.56765611676610
H        -5.18541222297829    1.46967540704580    1.30001296886469
C         0.23590000000003   -1.68140000000012    2.96029999999997
C        -1.00742436105723   -2.09881747650648    3.43772328825400
C         1.30007429212331   -1.78916409657974    3.87013279823193
C        -1.12242283277042   -2.55915374708812    4.74248053018487
H        -1.88724330516252   -2.09686798309940    2.80937388267485
C         1.08389514504863   -2.29219140786074    5.13940886827712
H         2.29713877018037   -1.52353559737452    3.55450780751500
N        -0.10612047391614   -2.68076009597868    5.57992260372787
H        -2.07949288519564   -2.88946646835469    5.13053694950322
H         1.90491206903061   -2.43167972244244    5.83438144191060
95
 energy: -136.697398856526 gnorm: 0.037439732141 xtb: 6.4.1 (1a32961)
N        -0.92675631243989   -2.08460971689994   -0.29340076673488
C        -2.20627695484989   -1.67792669698156   -0.38305099148468
C        -3.11963987925873   -2.35084859909266   -1.20613820025510
C        -2.71103141403364   -3.44991131537248   -1.92751234095660
C        -1.38584894947583   -3.86618957908614   -1.81307875150846
C        -0.54337168416314   -3.14789447915292   -0.99073890162581
H         0.49166646954812   -3.43548632486152   -0.86953072195233
H        -1.02490399579116   -4.72704027607230   -2.34994775786034
H        -4.14024245415670   -2.01559315391916   -1.28264067276935
C        -2.56967110424963   -0.51775296144875    0.41622173803088
N        -1.58087851659201    0.05750767531704    1.13413735139069
C        -1.87389309448024    1.12049433967592    1.87769127176640
C        -3.13953105862573    1.66072144749719    1.97656928570808
C        -4.17238421809573    1.07275193317678    1.24952741166630
C        -3.87723251006262   -0.01596622863253    0.45960940414016
H        -4.66047117388001   -0.48366627688247   -0.11229017167166
H        -3.31932919370684    2.51160084337431    2.61145357211655
H        -1.04261867837224    1.55225312999616    2.41287249229055
Ir        0.42150000000000   -0.81650000000000    0.91330000000000
H         0.87260000000000   -2.23030000000001    1.54050000000001
B         0.47848147501090    0.47251477998300   -0.72130166664210
O         0.09993022697767    0.00436451644520   -1.97118756355906
C        -0.02236408689464    1.10510592849721   -2.87595281655331
C         0.47885856463051    0.72316349889951   -4.26723503020866
H         1.48720976056470    0.32576528039819   -4.22779494562123
H         0.45637743697789    1.59848058699050   -4.91109945324537
H        -0.17169732426399   -0.03998100608207   -4.68627569764442
C        -1.52149868142365    1.43711096911009   -2.96052647132269
H        -1.70762603445463    2.24159002203813   -3.66505788146382
H        -2.05366005597847    0.54615081700366   -3.28666037935615
H        -1.89330430123969    1.71138894643901   -1.97531679731384
C         0.80164688284941    2.22356228076118   -2.16334629794256
O         0.76230283537032    1.81255325025751   -0.79294610191808
C         2.27740062567818    2.21906056001101   -2.58448405277834
H         2.68824189840670    1.22761516134157   -2.41317352514091
H         2.39256084904177    2.51331178549197   -3.62328892189360
H         2.82212707884793    2.91756615827078   -1.95392747985424
C         0.23938427347977    3.63591678561676   -2.31162579823028
H        -0.75312163031003    3.71654386063786   -1.88111050902716
H         0.89293206086179    4.33056520316740   -1.79035543577042
H         0.20430227279238    3.90598443537309   -3.36364710709960
B         1.57044415339611    0.62433163220338    1.88206455324769
O         2.92750041911567    0.58499112876377    2.10652110921327
C         3.36450128181746    1.88597943475349    2.52109192265181
C         4.53309757090436    1.77734979315743    3.49640967540061
H         4.29112716197961    1.12577058960321    4.32916193734680
H         5.39239583573043    1.36222613168938    2.97658605121520
H         4.78939413169847    2.76503737227417    3.86882712976775
C         3.81089950451187    2.61207175671836    1.24530048595685
H         4.19769189961931    3.60257437157177    1.46231052515008
H         4.58461909236763    2.01906632533993    0.76489897261226
H         2.96572064197331    2.66408301550725    0.56367550710984
C         2.05819339900685    2.49663914384548    3.11421063712368
O         1.04122887772890    1.77988766315297    2.40225259891361
C         1.89220715667681    3.99840456956938    2.90168496434059
H         1.83317199789329    4.23345635590233    1.84455492800303
H         0.97165950876414    4.32702887234915    3.37665129873488
H         2.72978294979156    4.52569447905075    3.34934571253071
C         1.87605850580670    2.16026971653378    4.60158143058855
H         1.98994113147902    1.08868253080647    4.74661617698877
H         2.58931402121339    2.70010139561935    5.21553062733279
H         0.86730234129203    2.43367725671825    4.90129859959987