99
 energy: -144.422533745297 gnorm: 0.077295944682 xtb: 6.4.1 (1a32961)
N        -0.96510000000000   -2.11530000000000   -0.24090000000000
C        -2.24700000000000   -1.69840000000000   -0.36220000000000
C        -3.14040000000000   -2.36820000000000   -1.21200000000000
C        -2.70220000000000   -3.47560000000000   -1.93050000000000
C        -1.37780000000000   -3.89880000000000   -1.78760000000000
C        -0.54290000000000   -3.18670000000000   -0.93510000000000
H         0.49810000000000   -3.45630000000000   -0.78940000000000
H        -0.99570000000000   -4.76030000000000   -2.32770000000000
H        -4.16500000000000   -2.02890000000000   -1.31830000000000
C        -2.62130000000000   -0.50950000000000    0.44100000000000
N        -1.62600000000000    0.07330000000000    1.16020000000000
C        -1.89680000000000    1.15240000000000    1.91690000000000
C        -3.17230000000000    1.70330000000000    1.99650000000000
C        -4.20510000000000    1.11740000000000    1.26270000000000
C        -3.92610000000000    0.00250000000000    0.47820000000000
H        -4.71960000000000   -0.46420000000000   -0.09520000000000
H        -3.34630000000000    2.57510000000000    2.62070000000000
H        -1.04450000000000    1.57420000000000    2.43690000000000
Ir        0.42150000000000   -0.81650000000000    0.91330000000000
H         0.87260000000000   -2.23030000000000    1.54050000000000
B         0.50670000000000    0.41560000000000   -0.81540000000000
O         0.19500000000000   -0.04700000000000   -2.09150000000000
C         0.00650000000000    1.10040000000000   -2.95430000000000
C         0.49020000000000    0.74740000000000   -4.35780000000000
H         1.51610000000000    0.37380000000000   -4.33700000000000
H         0.44730000000000    1.62240000000000   -5.01670000000000
H        -0.14740000000000   -0.03390000000000   -4.78430000000000
C        -1.50120000000000    1.39560000000000   -2.96670000000000
H        -1.75370000000000    2.21460000000000   -3.64850000000000
H        -2.03200000000000    0.49450000000000   -3.28930000000000
H        -1.85170000000000    1.65210000000000   -1.96220000000000
C         0.84230000000000    2.20670000000000   -2.22040000000000
O         0.75200000000000    1.78260000000000   -0.83690000000000
C         2.32930000000000    2.18620000000000   -2.59900000000000
H         2.74130000000000    1.18500000000000   -2.45750000000000
H         2.48870000000000    2.51300000000000   -3.63180000000000
H         2.87200000000000    2.86270000000000   -1.93200000000000
C         0.28440000000000    3.62290000000000   -2.33660000000000
H        -0.72650000000000    3.69040000000000   -1.92910000000000
H         0.92130000000000    4.31480000000000   -1.77610000000000
H         0.26430000000000    3.94810000000000   -3.38320000000000
B         1.56300000000000    0.60960000000000    1.84840000000000
O         2.92780000000000    0.55230000000000    2.15020000000000
C         3.36330000000000    1.88660000000000    2.50260000000000
C         4.53140000000000    1.78590000000000    3.47740000000000
H         4.27910000000000    1.16090000000000    4.33690000000000
H         5.39390000000000    1.33790000000000    2.97340000000000
H         4.82390000000000    2.77870000000000    3.83820000000000
C         3.79700000000000    2.56850000000000    1.19670000000000
H         4.20020000000000    3.57090000000000    1.37680000000000
H         4.56740000000000    1.95560000000000    0.72110000000000
H         2.95240000000000    2.63260000000000    0.50540000000000
C         2.05040000000000    2.50090000000000    3.09320000000000
O         1.03750000000000    1.81620000000000    2.31910000000000
C         1.89100000000000    4.00450000000000    2.88650000000000
H         1.87290000000000    4.25440000000000    1.82410000000000
H         0.94940000000000    4.34260000000000    3.33170000000000
H         2.71080000000000    4.55150000000000    3.36630000000000
C         1.82470000000000    2.13200000000000    4.56520000000000
H         1.92610000000000    1.05330000000000    4.71320000000000
H         2.52610000000000    2.65280000000000    5.22540000000000
H         0.80630000000000    2.41580000000000    4.84900000000000
B         2.27820000000000   -1.33090000000000    0.17410000000000
O         2.89460000000000   -2.57740000000000    0.38450000000000
C         4.26930000000000   -2.48200000000000   -0.07210000000000
C         5.10900000000000   -2.05380000000000    1.14010000000000
H         4.76350000000000   -1.08740000000000    1.51750000000000
H         4.98050000000000   -2.79470000000000    1.93590000000000
H         6.17420000000000   -1.99290000000000    0.89300000000000
C         4.71950000000000   -3.84660000000000   -0.58470000000000
H         4.75280000000000   -4.56130000000000    0.24420000000000
H         5.72330000000000   -3.78370000000000   -1.02010000000000
H         4.03500000000000   -4.23600000000000   -1.34170000000000
C         4.16440000000000   -1.36220000000000   -1.16300000000000
O         3.08520000000000   -0.55030000000000   -0.65400000000000
C         5.40720000000000   -0.48870000000000   -1.31550000000000
H         6.27320000000000   -1.09010000000000   -1.61530000000000
H         5.23300000000000    0.26930000000000   -2.08590000000000
H         5.64270000000000    0.02650000000000   -0.38240000000000
C         3.71800000000000   -1.89830000000000   -2.53110000000000
H         2.82530000000000   -2.52160000000000   -2.42740000000000
H         3.46090000000000   -1.05250000000000   -3.17550000000000
H         4.50570000000000   -2.48290000000000   -3.01790000000000
H        -3.38500000000000   -4.00130000000000   -2.59310000000000
H        -5.21400000000000    1.52080000000000    1.29960000000000
C         0.23590000000000   -1.68140000000000    2.96030000000000
C        -1.00958291235756   -2.06921356646444    3.43784116766338
N         1.33632441449619   -1.76279365112945    3.73102891046427
C        -1.09224663240391   -2.57441137010030    4.74065351189332
H        -1.89986416054564   -2.01462980887388    2.82656085928070
C         1.29092389795889   -2.25126172058255    4.95980084731956
C         0.09306537605690   -2.70427980551716    5.49477590496896
C        -2.13739914138846   -3.11747782192836    5.53996326199250
H         2.23292553030500   -2.30854694058204    5.49054346406330
N        -0.21857358438871   -3.31715928281625    6.67960331106758
C        -1.56164124291419   -3.56339136153700    6.69698032580691
H        -3.17935678954915   -3.17311184745749    5.27929069224511
H         0.43884814037845   -3.57179251972076    7.39891046298569
H        -2.01871855531310   -4.04759921020704    7.54253042644748
99
 energy: -144.429243080204 gnorm: 0.047868143188 xtb: 6.4.1 (1a32961)
N        -0.96157180171335   -2.09981176059380   -0.25094431362235
C        -2.24101137567997   -1.69013227864199   -0.36402412263336
C        -3.13569880445660   -2.36285554995535   -1.20588049687429
C        -2.70513702905843   -3.46381241814040   -1.92139349455468
C        -1.38425716072707   -3.88238278877879   -1.78212772980000
C        -0.55423241888023   -3.16788314408123   -0.94082578170613
H         0.47965945386446   -3.44761612720593   -0.79119115517879
H        -1.00768097747316   -4.74226933002490   -2.31763017631845
H        -4.15623486340772   -2.02735553331456   -1.31027738180538
C        -2.61147150155806   -0.51296831771327    0.43361593404728
N        -1.61768534490021    0.06650305109009    1.14652665358805
C        -1.89678298544269    1.13875582016229    1.89324223503083
C        -3.16342995397936    1.68758476463740    1.98165843938846
C        -4.19590576453391    1.10325454952038    1.25500510760303
C        -3.91465995737822   -0.00242709161138    0.47418780964182
H        -4.70646808219756   -0.46617029439719   -0.09402628094326
H        -3.33854880082004    2.55032549051515    2.60918741212729
H        -1.05386999930517    1.55622505786500    2.42330957641094
Ir        0.42150000000000   -0.81650000000000    0.91330000000000
H         0.87260000000000   -2.23030000000000    1.54050000000000
B         0.49116919719884    0.42709070041481   -0.78904632919986
O         0.17586306195022   -0.03330625008197   -2.06147098755371
C         0.01066579557042    1.09735715521667   -2.94346760060396
C         0.48954736791781    0.74700097262427   -4.34831200119381
H         1.50850205716940    0.37028479989537   -4.32668578375731
H         0.44463726118518    1.62221710838857   -4.99718387956666
H        -0.14922461721788   -0.02923899083289   -4.76830083779576
C        -1.49362823743193    1.39926514630745   -2.97002201813980
H        -1.73254886132836    2.21202496317499   -3.65432566924394
H        -2.02345273725520    0.50177863359613   -3.28938740566621
H        -1.84023680191867    1.65396652381533   -1.96833126021457
C         0.83215699431982    2.20800260215568   -2.21335990657935
O         0.75500759196651    1.78313100903767   -0.83587707704374
C         2.31470120349069    2.19110522328621   -2.60055473075504
H         2.71848448812926    1.19191128255842   -2.44969048457113
H         2.46663223189592    2.51204357089917   -3.63048865293981
H         2.85684847808878    2.86566848175000   -1.93892089052769
C         0.28037604587151    3.62387119475597   -2.34076206660287
H        -0.72284754108997    3.69236374951198   -1.92814354430731
H         0.91993802183100    4.30731542821235   -1.78375068758065
H         0.26257365399331    3.93620086364413   -3.38504014245086
B         1.56759479286649    0.60733484209457    1.86884390728351
O         2.93044078793629    0.56599226985507    2.13120153088148
C         3.36399290575998    1.88676279886855    2.50846089219816
C         4.53391923749436    1.79062624795978    3.47902654353849
H         4.28058458080113    1.16003284354872    4.32672993410627
H         5.38855686465750    1.34638460790198    2.97098143596333
H         4.81592842679599    2.78104452444777    3.83624120636172
C         3.79911039135003    2.57619218858216    1.21056289936352
H         4.20020552326625    3.57214801540636    1.39443380869543
H         4.56294397551426    1.96453889788240    0.73351826705743
H         2.95077900448413    2.62765781548274    0.52941581411856
C         2.05375989268486    2.50372989385339    3.08971572524608
O         1.04199421191003    1.80430186787995    2.33882402935177
C         1.89310550495549    4.00608607707109    2.88884263934749
H         1.86767971409861    4.24947079307006    1.83050874794596
H         0.95564516013682    4.33556818207910    3.33533734905992
H         2.71362036385372    4.54287430240184    3.36457213026623
C         1.83352329113866    2.13924123581838    4.56172735695644
H         1.93757070378374    1.06278695206986    4.69407896582227
H         2.53468882436048    2.66074567758251    5.21101222316615
H         0.81845192193244    2.41701135219954    4.84613168861635
B         2.27820000000000   -1.33089999999999    0.17410000000000
O         2.89886634596725   -2.56346044399917    0.38351125668858
C         4.26496782409972   -2.48320061622528   -0.07879516185873
C         5.10861691702189   -2.05858772796682    1.12744028945035
H         4.74895296179977   -1.10102823808251    1.50080824982053
H         4.97564753839642   -2.79345748383685    1.91986403649192
H         6.16685699882005   -1.99767544315960    0.87591430891759
C         4.72060921095854   -3.84521415453639   -0.58898031644219
H         4.74952443583178   -4.54908482320687    0.24148130041811
H         5.71879118500004   -3.77367803088208   -1.02035718477020
H         4.03542143225067   -4.23326017297561   -1.33794573906418
C         4.16616140895582   -1.35983340224831   -1.15851216383024
O         3.07337249411934   -0.56333835752408   -0.66343613495388
C         5.40945157163625   -0.49160028919711   -1.31601660134604
H         6.26570516794514   -1.09752924361343   -1.61145830607376
H         5.23129370089546    0.25968642488735   -2.08426729565469
H         5.63625126920055    0.02221664731362   -0.38642830341216
C         3.72957633501369   -1.89925215580946   -2.52684193247506
H         2.83749912633222   -2.51460509871383   -2.41767156250305
H         3.47195509818732   -1.05794698538501   -3.16889419563284
H         4.51954169842648   -2.47668130667121   -3.00439073058188
H        -3.38425004082338   -3.98868876238721   -2.57963384344083
H        -5.20012752324520    1.50410544075208    1.29647180403746
C         0.23590000000001   -1.68140000000002    2.96030000000000
C        -1.01149762057572   -2.07216063669101    3.43301933245468
N         1.33123741013576   -1.75638141467454    3.73756435645981
C        -1.09783409246454   -2.57366579393697    4.73639876551600
H        -1.89883019427287   -2.02242127044946    2.81822878628599
C         1.28554273794754   -2.23803272608573    4.96128642349063
C         0.08981553685157   -2.69584487112263    5.49667101399743
C        -2.14065700949077   -3.12006829644625    5.53691156833906
H         2.22655680959373   -2.28861364289712    5.49499164642174
N        -0.22390128300652   -3.30588741511211    6.68053881293572
C        -1.56501427731931   -3.55852528288156    6.69394809013628
H        -3.17909638422137   -3.18212942379637    5.27538848780205
H         0.43103646972670   -3.55573696740176    7.40195457103658
H        -2.02085406713611   -4.04158543442491    7.53806109958007
99
 energy: -144.431164013457 gnorm: 0.037209370734 xtb: 6.4.1 (1a32961)
N        -0.95339014265448   -2.08951248821121   -0.26145458741554
C        -2.23191171021575   -1.68215424087983   -0.36835885545183
C        -3.13220795250044   -2.35599979840593   -1.20327407683123
C        -2.71007379946311   -3.45408775480107   -1.91882432202646
C        -1.38883294171083   -3.87233879020080   -1.78366078175391
C        -0.55897413671685   -3.15699654959681   -0.94891313112756
H         0.47372179197370   -3.44022013447162   -0.80699665626124
H        -1.01801721205158   -4.73187964012273   -2.31721259501455
H        -4.15190261409023   -2.02250649490382   -1.29857795347331
C        -2.59812890716071   -0.51494081679988    0.42479063383270
N        -1.60604905905235    0.05926625973896    1.13990683863400
C        -1.89227370316101    1.12618019419728    1.88189191309203
C        -3.15394132553756    1.67564427833078    1.97313999445419
C        -4.18767144457093    1.09208884897927    1.24688074070711
C        -3.90212001344935   -0.00609082092217    0.46570987530852
H        -4.69136263804202   -0.47131349795402   -0.10040686449702
H        -3.32982685534694    2.53355414920540    2.60145382010360
H        -1.05456492426651    1.54832689937149    2.41329141869139
Ir        0.42150000000000   -0.81649999999999    0.91330000000000
H         0.87260000000000   -2.23030000000000    1.54050000000000
B         0.49562031372238    0.44121773430958   -0.76461269104123
O         0.15666315446980   -0.02090444566946   -2.02937217378368
C         0.00613123977212    1.09581222908536   -2.92286433408121
C         0.48960844472189    0.73927364130136   -4.32507665605981
H         1.50473917123422    0.35887592400780   -4.30436802791816
H         0.44465122296918    1.61718431302439   -4.96459194180906
H        -0.15320281625409   -0.03102033440196   -4.74302954122156
C        -1.49654992350709    1.40675964894656   -2.96940834779396
H        -1.71730886962694    2.21529124224956   -3.65972245118132
H        -2.02535384525083    0.51133146166522   -3.28926189754689
H        -1.84582687233065    1.66500793537168   -1.97191775676417
C         0.82418795841456    2.20980221755479   -2.20098062852963
O         0.75883917609662    1.79128946898989   -0.82787047062354
C         2.30408942263263    2.19725841064330   -2.59868849478645
H         2.70433053409650    1.19960019254823   -2.43983053630427
H         2.44294668377284    2.50986735099249   -3.62974157003353
H         2.84636504981104    2.87640141684498   -1.94566944234868
C         0.26983505921716    3.62407058254837   -2.33908478058146
H        -0.72911674392569    3.69820259010597   -1.92283419808812
H         0.91443188119375    4.30630181107689   -1.79174389903024
H         0.25246912470345    3.91915391741922   -3.38481843402223
B         1.57748605351564    0.61662431187223    1.86429794288616
O         2.93218461502991    0.58012340034415    2.11315358634820
C         3.36480864924364    1.88963950640962    2.50876475770713
C         4.53236657078405    1.79160187011650    3.48294647332656
H         4.28167098426095    1.15415266525190    4.32303111850241
H         5.38498361407128    1.35604878853999    2.97008640563499
H         4.80339175987538    2.78111420128904    3.84017271774924
C         3.80449773121208    2.59230128516887    1.21952521228415
H         4.20152600457029    3.58424563783057    1.41231519587718
H         4.56733742329348    1.98364275513057    0.74203307263507
H         2.95442480623801    2.63791598211023    0.54335880995545
C         2.05528151141238    2.50138154103504    3.09057167811935
O         1.04501742950348    1.79404516094856    2.35469115923567
C         1.89380592422447    4.00366435802613    2.88876314103546
H         1.85976641607131    4.24597548279775    1.83267947994688
H         0.96135428488784    4.32819528163654    3.34225332513151
H         2.71789166229633    4.53196019509197    3.35955303780340
C         1.84831802480535    2.14304115854512    4.56687788924243
H         1.95620176607744    1.06784911906262    4.68936812346275
H         2.55168894153362    2.66783382066896    5.20540803769833
H         0.83531789235618    2.41630752273203    4.85385369484329
B         2.27820000000000   -1.33089999999998    0.17410000000000
O         2.89969864520032   -2.55223191047310    0.38806657708858
C         4.25658788509265   -2.48141782941236   -0.08168028521713
C         5.10837056230919   -2.06081488879505    1.11947139211633
H         4.74098839580470   -1.10787104035869    1.49116508203943
H         4.97622051217184   -2.79493172193377    1.90891317221028
H         6.16073914798944   -1.99917810461715    0.85940194411588
C         4.71312837515128   -3.84284639722364   -0.59444594244439
H         4.74405610978514   -4.53972061041846    0.23785986897120
H         5.70746449737575   -3.76160479909266   -1.02398075835740
H         4.02855022867104   -4.23300541819371   -1.33917478004091
C         4.16139694225230   -1.35907115401820   -1.15834510787545
O         3.06152919311455   -0.57220592591245   -0.67226841865066
C         5.40624655882460   -0.49254479947019   -1.31085802088002
H         6.25454986661124   -1.10592165447280   -1.60070643150742
H         5.22984977807644    0.25235332035298   -2.08163362337167
H         5.62888716801476    0.02265450816117   -0.38390664644058
C         3.73969807487312   -1.90189660975276   -2.53072636080938
H         2.84870269355383   -2.51441480146555   -2.42032454980568
H         3.48574672774813   -1.06256323312669   -3.17318753212528
H         4.53590677498774   -2.47505293637990   -2.99513145493949
H        -3.39070897500463   -3.97999160564357   -2.57008872123150
H        -5.19063596379283    1.48812973298163    1.29346393223553
C         0.23590000000002   -1.68140000000005    2.96030000000000
C        -1.01242741967021   -2.07866195190887    3.42637002441349
N         1.32508520671017   -1.74284810202774    3.74598989202772
C        -1.10407652047138   -2.57319508555648    4.73151603323951
H        -1.89554286681825   -2.03936160798727    2.80484672341176
C         1.27680926923231   -2.21477428199398    4.96844177076213
C         0.08256367177403   -2.68067075100880    5.50208925133647
C        -2.14582845542241   -3.12482369566966    5.53028398454510
H         2.21487748153322   -2.25221272909408    5.50990570578775
N        -0.23443678922279   -3.28576707751476    6.68587230452898
C        -1.57275152454547   -3.55050357820464    6.69210148169906
H        -3.18099738526275   -3.19833825249134    5.26339239879902
H         0.41734896637806   -3.52623960654467    7.41258844617890
H        -2.02876309916177   -4.03249059467981    7.53549806348233
99
 energy: -144.431991467325 gnorm: 0.036972106903 xtb: 6.4.1 (1a32961)
N        -0.94453903181826   -2.08609770765300   -0.27179602113604
C        -2.22403476507308   -1.67864298417838   -0.37309713393986
C        -3.12989404973034   -2.35318593109184   -1.20313884770137
C        -2.71395545634082   -3.45130566243941   -1.92011950169461
C        -1.39029371778735   -3.86902543333397   -1.79215380758483
C        -0.55636342121932   -3.15255388428541   -0.96260370039124
H         0.47665660434174   -3.43900639583912   -0.82703935343998
H        -1.02400686635310   -4.72956104709184   -2.32596820514205
H        -4.14980679741174   -2.01854741605999   -1.29079880936612
C        -2.58740879411104   -0.51543615085066    0.41916366184652
N        -1.59557936896119    0.05720993652827    1.13708478180785
C        -1.88526991021263    1.12350412111643    1.87745287936658
C        -3.14675974150469    1.67154203802369    1.97036680319592
C        -4.18157951822764    1.08707945400661    1.24312335364769
C        -3.89256948949243   -0.00702369643976    0.45964532110248
H        -4.67903769391627   -0.47265235531683   -0.10968536822786
H        -3.32393222740186    2.52685252446876    2.60051615799884
H        -1.05067878915536    1.54716210053442    2.41311398691567
Ir        0.42150000000000   -0.81649999999999    0.91330000000000
H         0.87260000000000   -2.23030000000000    1.54050000000000
B         0.48085519542367    0.45890115533762   -0.74357583098331
O         0.13427732694416   -0.00985660570854   -2.00372854742839
C        -0.00314206972824    1.09750293878169   -2.90465526837450
C         0.48794826842143    0.72963863821227   -4.30221348998698
H         1.50046393883972    0.34324656923111   -4.27523543425463
H         0.45005283322550    1.60712611892925   -4.94193363069945
H        -0.15820571212825   -0.03780692869809   -4.71960449050607
C        -1.50466157278748    1.41665588988378   -2.96822233564230
H        -1.71028424817258    2.22268486278843   -3.66536847681538
H        -2.03403231621079    0.52239898836597   -3.28950577226143
H        -1.86232735770190    1.68171427250746   -1.97571146104639
C         0.81580946364487    2.21439341204837   -2.18807763273189
O         0.75903685181484    1.80367524770539   -0.81578207076735
C         2.29421689614467    2.20301859073976   -2.59506570660888
H         2.69620997462904    1.20730303060490   -2.42923573397202
H         2.42364458867083    2.50677899080819   -3.62947547805317
H         2.83787100335817    2.88977010730573   -1.95150115408299
C         0.25994657798879    3.62824380331978   -2.33512393372952
H        -0.73683559579893    3.70666534964522   -1.91500376206866
H         0.90826920650566    4.31514960107265   -1.79839626337826
H         0.23816314690275    3.90973613107654   -3.38416397611940
B         1.58017834414154    0.61226058676018    1.87952583711304
O         2.93680804002889    0.58761757967758    2.09792089831039
C         3.36631780020374    1.89166501819858    2.50740659859729
C         4.53391095238066    1.79009660406406    3.48294481860511
H         4.28577212183293    1.14436535582328    4.31718745334417
H         5.38936398520866    1.36438250922611    2.96685578010943
H         4.79627441078262    2.77885164639133    3.84749137195809
C         3.80867958355379    2.60948389304915    1.22609282621761
H         4.20106428650538    3.60039787368294    1.43015711360370
H         4.57542993930865    2.00754279911740    0.74655624188600
H         2.95980612104621    2.65680050607207    0.54906341032139
C         2.05738578048791    2.49889855415399    3.09549111533617
O         1.04586952922273    1.78399692181070    2.37324918349800
C         1.89141883035023    4.00120172876413    2.89039261658251
H         1.84746028300676    4.24149715829917    1.83426281371775
H         0.96320335512761    4.32517415508222    3.35242619979755
H         2.72033695067666    4.52841831410717    3.35289708349744
C         1.86353290981484    2.14621126917879    4.57609593910266
H         1.97599948141468    1.07185982680928    4.69839934798849
H         2.57105063514691    2.67586206511881    5.20495383862152
H         0.85195141694745    2.41680172319149    4.86924902148093
B         2.27819999999999   -1.33089999999997    0.17410000000000
O         2.89978777946783   -2.54686612600793    0.39395260742176
C         4.25063570313838   -2.48073446941962   -0.08323658034513
C         5.11014681557903   -2.06202796930722    1.11412312218709
H         4.74150641865634   -1.11058455175124    1.48796654260215
H         4.98179628391487   -2.79805864106143    1.90210377938437
H         6.15989245145396   -1.99892951511315    0.84724289570947
C         4.70484583965403   -3.84325072404208   -0.59820171957048
H         4.73947121559241   -4.53857770020008    0.23482736614751
H         5.69708307753832   -3.75784921147588   -1.03048707051532
H         4.01839147061189   -4.23432404121178   -1.34041851113547
C         4.15668805759672   -1.35877755554877   -1.16017869949350
O         3.05221302264693   -0.57647099531860   -0.68167625782985
C         5.40215995868313   -0.49100246493838   -1.30647370378496
H         6.24965281868153   -1.10833122048416   -1.58890059140618
H         5.23048140601470    0.25051498580819   -2.08120109159581
H         5.61954958560152    0.02670744447539   -0.37995073041214
C         3.74810196573253   -1.90418416855674   -2.53663522246669
H         2.85764973234446   -2.51784088740306   -2.43197493132314
H         3.49980786352854   -1.06599902565739   -3.18248175817349
H         4.55095422786206   -2.47593834153884   -2.99000562116406
H        -3.39833351084416   -3.97767959410941   -2.56657275401013
H        -5.18520520592993    1.47997154395047    1.29194393231233
C         0.23590000000003   -1.68140000000009    2.96029999999999
C        -1.01225409350782   -2.08777745642918    3.41905465619979
N         1.31915794861752   -1.72533110919244    3.75458196911160
C        -1.10967456225883   -2.57318265018106    4.72695360463471
H        -1.89056999409301   -2.06245443462131    2.78935014452483
C         1.26602528649789   -2.18621579710137    4.98016024247551
C         0.07260918021872   -2.66138696371188    5.50932353958185
C        -2.15171436877672   -3.13064792480006    5.52138318799115
H         2.19971397310276   -2.20797366987409    5.53136621063436
N        -0.24818206781741   -3.26027211142626    6.69444678105203
C        -1.58343420772361   -3.54043803921107    6.69142838762604
H        -3.18380710546333   -3.21861677646079    5.24591227718719
H         0.40008558826553   -3.48818495052425    7.42864097958383
H        -2.04100151945344   -4.02125495557258    7.53460703052382
99
 energy: -144.432994311795 gnorm: 0.037122997584 xtb: 6.4.1 (1a32961)
N        -0.93219564016439   -2.08369517063392   -0.28781135949165
C        -2.21373945570030   -1.67597301900641   -0.38080199465164
C        -3.12627934737702   -2.35193413242279   -1.20481749962280
C        -2.71727069148079   -3.45030769856862   -1.92455312405384
C        -1.39021757978632   -3.86652505211846   -1.80782191270164
C        -0.54966676155507   -3.14868883949325   -0.98486083524532
H         0.48527381828683   -3.43629607033325   -0.86059293956495
H        -1.02881510332561   -4.72727596629657   -2.34495797242349
H        -4.14709672374966   -2.01598842274284   -1.28205721472368
C        -2.57420599560666   -0.51593919995151    0.41301972193718
N        -1.58278227782816    0.05345257719394    1.13759457646550
C        -1.87523624563707    1.12080560316184    1.87735809933130
C        -3.13707887862590    1.66807825007692    1.96972923477597
C        -4.17254224653354    1.08409284336076    1.23921682960532
C        -3.87984311038457   -0.00523375499883    0.45144812151372
H        -4.66270310416408   -0.46968053524535   -0.12455797685084
H        -3.31566349481528    2.52126311892564    2.60229994453132
H        -1.04311388343041    1.54684179699371    2.41632836757493
Ir        0.42150000000000   -0.81649999999998    0.91330000000001
H         0.87260000000000   -2.23030000000000    1.54050000000000
B         0.47781751897714    0.48111194741581   -0.71711977169292
O         0.10252539389991    0.00697979459647   -1.96787695935418
C        -0.01969035889376    1.10261434868568   -2.87785086979377
C         0.48196992651408    0.71405904697060   -4.26754233435911
H         1.49000956792458    0.31585711158826   -4.22544730292736
H         0.46048202478534    1.58661661656220   -4.91556180985424
H        -0.16894278705001   -0.05077227606426   -4.68328257313050
C        -1.51901673297212    1.43436632864784   -2.96501399447876
H        -1.70535450799507    2.23646272477340   -3.67262681307907
H        -2.05081615751567    0.54179806372388   -3.28773836891375
H        -1.89137716927793    1.71162318351886   -1.98068417602797
C         0.80382978219192    2.22435716811212   -2.17025618648025
O         0.76071284664131    1.82251540214307   -0.79784937135673
C         2.28026910315132    2.21474848077040   -2.58929053234029
H         2.68813085577678    1.22298779123923   -2.41189325730147
H         2.39802474371082    2.50368343601356   -3.62959638997075
H         2.82565256756079    2.91475203866598   -1.96073342613044
C         0.24355536876801    3.63682452433110   -2.32787050119052
H        -0.74973798962453    3.71992387244025   -1.89938433794242
H         0.89672441752603    4.33344512493951   -1.80839611148448
H         0.21044430354265    3.90181700653983   -3.38152852106687
B         1.58688008531729    0.61655733503346    1.87661659624435
O         2.94393054862412    0.60128849212653    2.07107828615828
C         3.37082886397950    1.89761903865191    2.50372865304051
C         4.53811066410037    1.78570834166832    3.48092510392382
H         4.29348972527345    1.12391532142033    4.30442571186245