99
 energy: -144.439616280006 gnorm: 0.000161153032 xtb: 6.4.1 (1a32961)
N        -0.93603665751719   -2.04266904345593   -0.34661544047986
C        -2.20158457828229   -1.59701691823471   -0.47508503678631
C        -3.11332768298865   -2.25448831320096   -1.31372914167678
C        -2.71009760196237   -3.35384062251875   -2.03744775578287
C        -1.39219760168032   -3.79081667675775   -1.90832450653963
C        -0.55776502272097   -3.10590338779689   -1.05101285159416
H         0.46783047933480   -3.41590438322843   -0.90653649671327
H        -1.03219147844168   -4.64546192316651   -2.45780117513602
H        -4.13122746498806   -1.90923776264341   -1.39311438107160
C        -2.54645192774696   -0.41392626490770    0.29726148609745
N        -1.59657924271021    0.05336264996787    1.14012682969088
C        -1.87377811343311    1.12974214125131    1.87598432289575
C        -3.07466667492632    1.80387009075560    1.81894415324068
C        -4.05390241672598    1.34956620084063    0.93608848599893
C        -3.78094770291710    0.23684262185181    0.17213006013966
H        -4.51956419602794   -0.12325315972609   -0.52514311974789
H        -3.24721884890416    2.66361630766588    2.44619241029620
H        -1.07844462932518    1.45357449204555    2.53006464117338
Ir        0.42149999999994   -0.81649999999983    0.91330000000010
H         0.87259999999999   -2.23030000000007    1.54049999999996
B         0.36675884752193    0.63362470546719   -0.58461375531350
O        -0.19907325030943    0.30638522415908   -1.80375405006378
C        -0.32827418123211    1.47615043327618   -2.61830248735370
C         0.03282664990726    1.13610796195425   -4.06236345638557
H         0.99727893022789    0.64126379881092   -4.10821205456697
H         0.05361882843464    2.03928365115062   -4.66691286746973
H        -0.71566254819972    0.45896598465024   -4.46708428952554
C        -1.79981173667784    1.91081255780729   -2.55422152040412
H        -1.98350531413564    2.77009684858878   -3.19252994898050
H        -2.42214143369430    1.08205248041413   -2.88644859603248
H        -2.07619157342337    2.14881641213404   -1.52888547266238
C         0.63429443114969    2.48839851401363   -1.91458127302064
O         0.71323096018534    1.96708302776182   -0.58098111323613
C         2.05463126810368    2.44135105574919   -2.49134465085573
H         2.42890463857052    1.42248485179698   -2.42535058561638
H         2.07818771062886    2.79459538140430   -3.51825928416692
H         2.69930926742756    3.07247162921780   -1.88446922009810
C         0.14267085512000    3.93414754430915   -1.88244722276549
H        -0.78251737753115    4.02401246836314   -1.32165428364811
H         0.89341166500413    4.55375404711658   -1.39802022490573
H        -0.01055429274752    4.29698289022699   -2.89568316566632
B         1.59137936486595    0.62628712325487    1.87189832344401
O         2.94323289301018    0.84164453988457    1.76817410482285
C         3.29432968230006    2.08469107380114    2.39133634784992
C         4.62943282014155    1.94169476729379    3.12030422992191
H         4.61952091519797    1.07991569608225    3.77887091388663
H         5.42114696529218    1.80095586662728    2.38880234334349
H         4.84028598869050    2.84027642425611    3.69416542874781
C         3.43189277444721    3.11592192077265    1.26465519423655
H         3.69146837525511    4.09737175347390    1.65077267740515
H         4.21283365189866    2.78238110389553    0.58522109790256
H         2.49959940266950    3.15629283649038    0.70729586709618
C         2.06287387973433    2.36233080226860    3.31687320495127
O         1.03416167547324    1.56215724985560    2.71920512267363
C         1.60831072048072    3.82007327237826    3.36679599230041
H         1.27548398609741    4.15211270923261    2.38899312844477
H         0.77487700969169    3.90991775462083    4.05940665533540
H         2.42093962161830    4.45368681971050    3.71210730212734
C         2.26574489450465    1.84036692052079    4.74417211352150
H         2.54476265963098    0.79149759854766    4.70476165662845
H         3.02244259058350    2.41513080320039    5.26936439579417
H         1.32311245691149    1.91909329902126    5.28111183971603
B         2.27819999999960   -1.33090000000085    0.17409999999979
O         3.09749689705252   -2.34377975383621    0.62205320420378
C         4.38956909107024   -2.24346857402148    0.01001365634569
C         5.30958744088745   -1.58515983600701    1.04379057857329
H         4.87302642777095   -0.63786997382447    1.34694855856419
H         5.35648285923847   -2.22758977876616    1.91926130778465
H         6.31231505607091   -1.44198380666418    0.65291399596693
C         4.91038396920848   -3.64312624009274   -0.31620326315382
H         5.04473085759520   -4.19055681705829    0.61292549913732
H         5.86631282405422   -3.57578284243125   -0.82812188556505
H         4.20726304823917   -4.19360899035053   -0.93234309063984
C         4.11467310033769   -1.32870334250668   -1.23545598277209
O         2.86373491933157   -0.70850591275071   -0.90602972638802
C         5.16084786073339   -0.24088547082487   -1.47412541776535
H         6.14265924993926   -0.68317707215312   -1.61869133912555
H         4.89301836559300    0.32071736270164   -2.36575541496697
H         5.18279119625265    0.44567381784912   -0.63514385002644
C         3.90322223497772   -2.11767460242542   -2.53508463734044
H         3.12586147102717   -2.86441693466860   -2.39843275298876
H         3.57227466709848   -1.42923099872305   -3.30920307957017
H         4.82351940477876   -2.59571162532314   -2.85682250514352
H        -3.40074215038857   -3.86683218556209   -2.68965528841161
H        -5.00274322241138    1.85765574323465    0.85070775966639
C         0.23590000000068   -1.68140000000159    2.96029999999912
C        -1.04553256726294   -2.08547470628698    3.31219963481216
N         1.19892472928216   -1.48297708383685    3.86202482122621
C        -1.34358817933809   -2.19217640351101    4.67174900288041
H        -1.79756888804802   -2.31463466102191    2.57120248795254
C         0.95456325883377   -1.59598366777088    5.15009573934596
C        -0.31074392076275   -1.93453650564052    5.61121893867418
C        -2.49870525757578   -2.53295464022860    5.42980214190728
H         1.78869300698244   -1.42226169006318    5.81935658988408
N        -0.82911895350311   -2.11516102179774    6.86301137383681
C        -2.14070786628800   -2.47227221577365    6.74407933913468
H        -3.46423949052811   -2.78619638833286    5.03898605937686
H        -0.32737556050039   -2.00792310622989    7.72780134168589
H        -2.73717336264355   -2.66087805330770    7.61628423529372
