12
 energy: -19.941545534967 gnorm: 0.025350600111 xtb: 6.4.0 (f63f532)
C         0.32335000000000   -1.21346000000000   -0.01521000000000
C         1.71888000000000   -1.20508000000000   -0.00045000000000
C         2.40912000000000    0.00757000000000    0.00880000000000
C         1.70588000000000    1.21293000000000    0.00014000000000
C         0.31063000000000    1.20692000000000   -0.01383000000000
C        -0.37570000000000   -0.00733000000000   -0.01826000000000
Cl       -2.09640000000000   -0.01625000000000   -0.02438000000000
H        -0.21113000000000   -2.15952000000000   -0.02322000000000
H         2.26790000000000   -2.14362000000000    0.00455000000000
H         3.49636000000000    0.01326000000000    0.02357000000000
H         2.24514000000000    2.15703000000000    0.00424000000000
H        -0.23395000000000    2.14705000000000   -0.01908000000000
12
 energy: -19.942453742155 gnorm: 0.009492051106 xtb: 6.4.0 (f63f532)
C         0.33001241099820   -1.20843123124313   -0.01245044871746
C         1.71589816785682   -1.19634895692469   -0.00017864239484
C         2.40312844164297    0.00752730080982    0.00721511463874
C         1.70305608160633    1.20417137151831    0.00067099858755
C         0.31728593988646    1.20179639107563   -0.01126007738145
C        -0.36262531729156   -0.00713428476230   -0.01696768285625
Cl       -2.08957539143569   -0.01610080505353   -0.03222860038230
H        -0.20634686988650   -2.14631842543469   -0.01921938756706
H         2.25858738764110   -2.13045125311318    0.00388236246130
H         3.48380515481239    0.01319937536573    0.01898007195791
H         2.23609551955666    2.14382214806668    0.00534128695072
H        -0.22924152538717    2.13376836969536   -0.01691499529687
12
 energy: -19.942530668303 gnorm: 0.004710975656 xtb: 6.4.0 (f63f532)
C         0.33182186255037   -1.20856380568464   -0.01197838377473
C         1.71606234445373   -1.19462806014666    0.00000593118671
C         2.40328304452899    0.00754618273965    0.00667417900738
C         1.70332861770782    1.20247821451994    0.00108141338960
C         0.31908256191428    1.20185504623189   -0.01096457295540
C        -0.35737745236119   -0.00703356592931   -0.01778527545204
Cl       -2.09035452228328   -0.01613459332567   -0.03476567740251
H        -0.20750210456722   -2.14267754341237   -0.01730094664493
H         2.25618055218482   -2.12841710629080    0.00447577099871
H         3.48212986903616    0.01320512816648    0.01652277830523
H         2.23382971473155    2.14180601500817    0.00635264105738
H        -0.23040448789603    2.13006408812334   -0.01544785771539
12
 energy: -19.942553445870 gnorm: 0.001861206380 xtb: 6.4.0 (f63f532)
C         0.33230633142932   -1.20952385400097   -0.01169586174865
C         1.71667809095266   -1.19458507067592   -0.00001713761678
C         2.40401302011352    0.00756951770976    0.00629560079499
C         1.70400940624328    1.20245483463567    0.00103404305208
C         0.31955109279091    1.20277570668830   -0.01068057568105
C        -0.35453133646108   -0.00697623563826   -0.01752070553197
Cl       -2.09264837625226   -0.01620529493297   -0.03556337122419
H        -0.20929945545449   -2.14175195403820   -0.01705060879602
H         2.25599933303470   -2.12880453352964    0.00467946007530
H         3.48248548281372    0.01320556232444    0.01601801130736
H         2.23367846746373    2.14221519809364    0.00668479330302
H        -0.23216205667400    2.12912612336416   -0.01531364793409
12
 energy: -19.942558010719 gnorm: 0.000685353009 xtb: 6.4.0 (f63f532)
C         0.33212586773159   -1.21043805502167   -0.01226776069619
C         1.71718637641754   -1.19520869715449    0.00003281846360
C         2.40430155034892    0.00758382994603    0.00684132853190
C         1.70453852798394    1.20308045063832    0.00110959107273
C         0.31935090433237    1.20368633001483   -0.01123024714052
C        -0.35314429497944   -0.00695378596649   -0.01820883846696
Cl       -2.09525181255324   -0.01627820038470   -0.03408505930126
H        -0.21055872374544   -2.14225001226447   -0.01746154518990
H         2.25703060633780   -2.12977683945606    0.00460606321891
H         3.48319648942838    0.01318611352573    0.01667223170166
H         2.23465916754068    2.14321469519967    0.00646838435463
H        -0.23335465884311    2.12965417092329   -0.01560696654859
12
 energy: -19.942558678048 gnorm: 0.000167979073 xtb: 6.4.0 (f63f532)
C         0.33197911456810   -1.21016064224845   -0.01196519068525
C         1.71699359674869   -1.19523303247726   -0.00018082509425
C         2.40397252769007    0.00757654186242    0.00646066522625
C         1.70432609490057    1.20309404469115    0.00082216642206
C         0.31920459476173    1.20341942251621   -0.01091683730639
C        -0.35371506439120   -0.00697041655350   -0.01731955151454
Cl       -2.09492453396265   -0.01626051051185   -0.03441323797929
H        -0.20995919037359   -2.14252112943183   -0.01776695046373
H         2.25719189016828   -2.12954383033874    0.00455924522784
H         3.48296821790182    0.01318047711859    0.01704582919618
H         2.23480042142950    2.14298135331478    0.00641247386110
H        -0.23275766944134    2.12993772205848   -0.01586778688999
