      -----------------------------------------------------------      
     |                   =====================                   |     
     |                           x T B                           |     
     |                   =====================                   |     
     |                         S. Grimme                         |     
     |          Mulliken Center for Theoretical Chemistry        |     
     |                    University of Bonn                     |     
      -----------------------------------------------------------      

   * xtb version 6.4.1 (1a32961) compiled by 'knkr256@seskscpg007.prim.scp' on 2021-10-19

   xtb is free software: you can redistribute it and/or modify it under
   the terms of the GNU Lesser General Public License as published by
   the Free Software Foundation, either version 3 of the License, or
   (at your option) any later version.
   
   xtb is distributed in the hope that it will be useful,
   but WITHOUT ANY WARRANTY; without even the implied warranty of
   MERCHANTABILITY or FITNESS FOR A PARTICULAR PURPOSE.  See the
   GNU Lesser General Public License for more details.
   
   Cite this work as:
   * C. Bannwarth, E. Caldeweyher, S. Ehlert, A. Hansen, P. Pracht,
     J. Seibert, S. Spicher, S. Grimme, WIREs Comput. Mol. Sci., 2020, 11,
     e01493. DOI: 10.1002/wcms.1493
   
   for GFN2-xTB:
   * C. Bannwarth, S. Ehlert and S. Grimme., J. Chem. Theory Comput., 2019,
     15, 1652-1671. DOI: 10.1021/acs.jctc.8b01176
   for GFN1-xTB:
   * S. Grimme, C. Bannwarth, P. Shushkov, J. Chem. Theory Comput., 2017,
     13, 1989-2009. DOI: 10.1021/acs.jctc.7b00118
   for GFN0-xTB:
   * P. Pracht, E. Caldeweyher, S. Ehlert, S. Grimme, ChemRxiv, 2019, preprint.
     DOI: 10.26434/chemrxiv.8326202.v1
   for GFN-FF:
   * S. Spicher and S. Grimme, Angew. Chem. Int. Ed., 2020, 59, 15665-15673.
     DOI: 10.1002/anie.202004239
   
   for ALPB and GBSA implicit solvation:
   * S. Ehlert, M. Stahn, S. Spicher, S. Grimme, J. Chem. Theory Comput.,
     2021, 17, 4250-4261. DOI: 10.1021/acs.jctc.1c00471
   
   for DFT-D4:
   * E. Caldeweyher, C. Bannwarth and S. Grimme, J. Chem. Phys., 2017,
     147, 034112. DOI: 10.1063/1.4993215
   * E. Caldeweyher, S. Ehlert, A. Hansen, H. Neugebauer, S. Spicher,
     C. Bannwarth and S. Grimme, J. Chem. Phys., 2019, 150, 154122.
     DOI: 10.1063/1.5090222
   * E. Caldeweyher, J.-M. Mewes, S. Ehlert and S. Grimme, Phys. Chem. Chem. Phys.
     2020, 22, 8499-8512. DOI: 10.1039/D0CP00502A
   
   for sTDA-xTB:
   * S. Grimme and C. Bannwarth, J. Chem. Phys., 2016, 145, 054103.
     DOI: 10.1063/1.4959605
   
   in the mass-spec context:
   * V. Asgeirsson, C. Bauer and S. Grimme, Chem. Sci., 2017, 8, 4879.
     DOI: 10.1039/c7sc00601b
   * J. Koopman and S. Grimme, ACS Omega 2019, 4, 12, 15120-15133.
     DOI: 10.1021/acsomega.9b02011
   
   for metadynamics refer to:
   * S. Grimme, J. Chem. Theory Comput., 2019, 155, 2847-2862
     DOI: 10.1021/acs.jctc.9b00143
   
   for SPH calculations refer to:
   * S. Spicher and S. Grimme, J. Chem. Theory Comput., 2021, 17, 1701-1714
     DOI: 10.1021/acs.jctc.0c01306
   
   with help from (in alphabetical order)
   P. Atkinson, C. Bannwarth, F. Bohle, G. Brandenburg, E. Caldeweyher
   M. Checinski, S. Dohm, S. Ehlert, S. Ehrlich, I. Gerasimov, J. Koopman
   C. Lavigne, S. Lehtola, F. März, M. Müller, F. Musil, H. Neugebauer
   J. Pisarek, C. Plett, P. Pracht, J. Seibert, P. Shushkov, S. Spicher
   M. Stahn, M. Steiner, T. Strunk, J. Stückrath, T. Rose, and J. Unsleber
   
 * started run on 2022/01/14 at 13:24:41.355     

           -------------------------------------------------
          |                Calculation Setup                |
           -------------------------------------------------

          program call               : xtb xtbopt.xyz --sp --alpb thf -P 6
          hostname                   : seskscpg007.prim.scp
          coordinate file            : xtbopt.xyz
          omp threads                :                     6
          number of atoms            :                   114
          number of electrons        :                   304
          charge                     :                     0
          spin                       :                   0.0
          first test random number   :      0.95462730533598

   ID    Z sym.   atoms
    1    7 N      1, 11, 93, 95
    2    6 C      2-6, 10, 12-15, 23, 24, 28, 32, 34, 38, 44, 45, 49, 53, 55,
                  59, 65, 66, 70, 74, 76, 80, 86-89, 91, 92, 96, 98, 102-105
    3    1 H      7-9, 16-18, 20, 25-27, 29-31, 35-37, 39-41, 46-48, 50-52,
                  56-58, 60-62, 67-69, 71-73, 77-79, 81-85, 90, 94, 97, 99,
                  106-114
    4   77 Ir     19
    5    5 B      21, 42, 63
    6    8 O      22, 33, 43, 54, 64, 75, 100, 101

molecular fragmentation (1/2 indicates fragments):
111111111111111111111111111111111111111111111111111111111111111111111111
111111111111122222222222222222222222222222
# atoms in fragment 1/2:    85    29
 fragment masses (1/2) :      730.32      217.24
CMA distance (Bohr)    :  12.786
constraining FC (au)   :  0.0500

           -------------------------------------------------
          |                 G F N 2 - x T B                 |
           -------------------------------------------------

        Reference                      10.1021/acs.jctc.8b01176
      * Hamiltonian:
        H0-scaling (s, p, d)           1.850000    2.230000    2.230000
        zeta-weighting                 0.500000
      * Dispersion:
        s8                             2.700000
        a1                             0.520000
        a2                             5.000000
        s9                             5.000000
      * Repulsion:
        kExp                           1.500000    1.000000
        rExp                           1.000000
      * Coulomb:
        alpha                          2.000000
        third order                    shell-resolved
        anisotropic                    true
        a3                             3.000000
        a5                             4.000000
        cn-shift                       1.200000
        cn-exp                         4.000000
        max-rad                        5.000000

      * Solvation model:               ALPB
        Solvent                        thf
        Parameter file                 internal GFN2-xTB/ALPB
        Dielectric constant                7.6000E+00
        Reference state                gsolv [1 M gas/solution]
        Free energy shift                  5.3248E-03 Eh       3.3414E+00 kcal/mol
        Temperature                        2.9815E+02 K
        Density                            8.8300E-01 kg/L
        Solvent mass                       7.2106E+01 g/mol
        Interaction kernel             P16
        Born radius scaling (c1)           1.7311E+00
        Born radii integrator          GBOBC
        Born offset                        0.0000E+00 a0       0.0000E+00 AA
        H-bond correction              true
        Ion screening                  false
        Surface tension                    1.0000E-05 Eh       1.5569E+01 dyn/cm
        Grid points                               230 per atom
q/qsh data taken from xtbrestart
CAMM data taken from xtbrestart

          ...................................................
          :                      SETUP                      :
          :.................................................:
          :  # basis functions                 288          :
          :  # atomic orbitals                 287          :
          :  # shells                          171          :
          :  # electrons                       304          :
          :  max. iterations                   250          :
          :  Hamiltonian                  GFN2-xTB          :
          :  restarted?                       true          :
          :  GBSA solvation                   true          :
          :  PC potential                    false          :
          :  electronic temp.          300.0000000     K    :
          :  accuracy                    1.0000000          :
          :  -> integral cutoff          0.2500000E+02      :
          :  -> integral neglect         0.1000000E-07      :
          :  -> SCF convergence          0.1000000E-05 Eh   :
          :  -> wf. convergence          0.1000000E-03 e    :
          :  Broyden damping             0.4000000          :
          ...................................................

 iter      E             dE          RMSdq      gap      omega  full diag
   1   -169.5642693 -0.169564E+03  0.456E-05    0.92       0.0  T
   2   -169.5642693  0.673793E-09  0.851E-05    0.92     110.0  T
   3   -169.5642693 -0.811326E-09  0.257E-05    0.92     363.9  T

   *** convergence criteria satisfied after 3 iterations ***

         #    Occupation            Energy/Eh            Energy/eV
      -------------------------------------------------------------
         1        2.0000           -0.7412701             -20.1710
       ...           ...                  ...                  ...
       146        2.0000           -0.3685920             -10.0299
       147        2.0000           -0.3480248              -9.4702
       148        2.0000           -0.3377121              -9.1896
       149        2.0000           -0.3277379              -8.9182
       150        2.0000           -0.3217253              -8.7546
       151        2.0000           -0.3161429              -8.6027
       152        2.0000           -0.3131709              -8.5218 (HOMO)
       153                         -0.2792639              -7.5992 (LUMO)
       154                         -0.2516577              -6.8480
       155                         -0.2489295              -6.7737
       156                         -0.2469162              -6.7189
       157                         -0.2351218              -6.3980
       ...                                ...                  ...
       287                          3.6532140              99.4090
      -------------------------------------------------------------
                  HL-Gap            0.0339070 Eh            0.9227 eV
             Fermi-level           -0.2961970 Eh           -8.0599 eV

 SCC (total)                   0 d,  0 h,  0 min,  0.107 sec
 SCC setup                      ...        0 min,  0.003 sec (  3.047%)
 Dispersion                     ...        0 min,  0.004 sec (  3.324%)
 classical contributions        ...        0 min,  0.000 sec (  0.184%)
 integral evaluation            ...        0 min,  0.012 sec ( 11.542%)
 iterations                     ...        0 min,  0.042 sec ( 39.363%)
 molecular gradient             ...        0 min,  0.045 sec ( 41.601%)
 printout                       ...        0 min,  0.001 sec (  0.847%)

         :::::::::::::::::::::::::::::::::::::::::::::::::::::
         ::                     SUMMARY                     ::
         :::::::::::::::::::::::::::::::::::::::::::::::::::::
         :: total energy            -167.435619299008 Eh    ::
         :: total w/o Gsasa/hb      -167.388408102712 Eh    ::
         :: gradient norm              0.033821531983 Eh/a0 ::
         :: HOMO-LUMO gap              0.922656634867 eV    ::
         ::.................................................::
         :: SCC energy              -169.564269273221 Eh    ::
         :: -> isotropic ES            0.301785701052 Eh    ::
         :: -> anisotropic ES          0.012414875081 Eh    ::
         :: -> anisotropic XC          0.055766484233 Eh    ::
         :: -> dispersion             -0.157682703536 Eh    ::
         :: -> Gsolv                  -0.062179374701 Eh    ::
         ::    -> Gelec               -0.014968178405 Eh    ::
         ::    -> Gsasa               -0.049179713599 Eh    ::
         ::    -> Ghb                 -0.003356298141 Eh    ::
         ::    -> Gshift               0.005324815444 Eh    ::
         :: repulsion energy           2.120059681480 Eh    ::
         :: add. restraining           0.000000000000 Eh    ::
         :: total charge               0.000000001562 e     ::
         :::::::::::::::::::::::::::::::::::::::::::::::::::::

           -------------------------------------------------
          |                Property Printout                |
           -------------------------------------------------

    * Orbital Energies and Occupations

         #    Occupation            Energy/Eh            Energy/eV
      -------------------------------------------------------------
         1        2.0000           -0.7412701             -20.1710
       ...           ...                  ...                  ...
       140        2.0000           -0.3923088             -10.6753
       141        2.0000           -0.3903963             -10.6232
       142        2.0000           -0.3892153             -10.5911
       143        2.0000           -0.3845757             -10.4648
       144        2.0000           -0.3842192             -10.4551
       145        2.0000           -0.3790076             -10.3133
       146        2.0000           -0.3685920             -10.0299
       147        2.0000           -0.3480248              -9.4702
       148        2.0000           -0.3377121              -9.1896
       149        2.0000           -0.3277379              -8.9182
       150        2.0000           -0.3217253              -8.7546
       151        2.0000           -0.3161429              -8.6027
       152        2.0000           -0.3131709              -8.5218 (HOMO)
       153                         -0.2792639              -7.5992 (LUMO)
       154                         -0.2516577              -6.8480
       155                         -0.2489295              -6.7737
       156                         -0.2469162              -6.7189
       157                         -0.2351218              -6.3980
       158                         -0.2077430              -5.6530
       159                         -0.1971825              -5.3656
       160                         -0.1863030              -5.0696
       161                         -0.1539159              -4.1883
       162                         -0.1474874              -4.0133
       163                         -0.1302407              -3.5440
       ...                                ...                  ...
       287                          3.6532140              99.4090
      -------------------------------------------------------------
                  HL-Gap            0.0339070 Eh            0.9227 eV
             Fermi-level           -0.2961970 Eh           -8.0599 eV

     #   Z          covCN         q      C6AA      α(0)
     1   7 N        2.543    -0.119    23.621     7.218
     2   6 C        2.955     0.079    26.240     8.402
     3   6 C        2.918    -0.042    29.047     8.838
     4   6 C        2.924    -0.021    28.537     8.760
     5   6 C        2.915    -0.043    29.056     8.839
     6   6 C        2.893     0.049    26.903     8.504
     7   1 H        0.926     0.056     2.245     2.343
     8   1 H        0.926     0.059     2.215     2.327
     9   1 H        0.926     0.049     2.335     2.389
    10   6 C        2.953     0.076    26.311     8.413
    11   7 N        2.561    -0.123    23.697     7.230
    12   6 C        2.890     0.041    27.072     8.530
    13   6 C        2.915    -0.044    29.095     8.845
    14   6 C        2.922    -0.023    28.579     8.767
    15   6 C        2.919    -0.045    29.111     8.848
    16   1 H        0.926     0.049     2.336     2.390
    17   1 H        0.926     0.053     2.282     2.362
    18   1 H        0.926     0.077     2.013     2.218
    19  77 Ir       5.935    -0.149   387.397    36.398
    20   1 H        0.977     0.081     1.965     2.191
    21   5 B        2.625     0.403    16.047     6.772
    22   8 O        1.638    -0.409    21.039     6.192
    23   6 C        3.836     0.131    18.441     6.109
    24   6 C        3.755    -0.122    22.897     6.823
    25   1 H        0.925     0.055     2.261     2.352
    26   1 H        0.925     0.045     2.378     2.412
    27   1 H        0.925     0.051     2.307     2.375
    28   6 C        3.754    -0.109    22.634     6.784
    29   1 H        0.925     0.048     2.348     2.396
    30   1 H        0.925     0.041     2.439     2.442
    31   1 H        0.925     0.027     2.623     2.533
    32   6 C        3.839     0.131    18.435     6.108
    33   8 O        1.637    -0.403    20.916     6.173
    34   6 C        3.755    -0.120    22.851     6.816
    35   1 H        0.925     0.047     2.358     2.401
    36   1 H        0.925     0.048     2.345     2.395
    37   1 H        0.925     0.050     2.315     2.379
    38   6 C        3.754    -0.120    22.856     6.817
    39   1 H        0.925     0.047     2.361     2.403
    40   1 H        0.925     0.054     2.272     2.357
    41   1 H        0.925     0.046     2.373     2.409
    42   5 B        2.619     0.404    16.074     6.784
    43   8 O        1.637    -0.375    20.387     6.095
    44   6 C        3.833     0.127    18.491     6.118
    45   6 C        3.755    -0.128    23.015     6.841
    46   1 H        0.925     0.054     2.272     2.357
    47   1 H        0.925     0.059     2.207     2.323
    48   1 H        0.925     0.051     2.313     2.379
    49   6 C        3.755    -0.123    22.921     6.827
    50   1 H        0.925     0.050     2.325     2.384
    51   1 H        0.925     0.048     2.344     2.394
    52   1 H        0.925     0.054     2.270     2.356
    53   6 C        3.830     0.127    18.492     6.119
    54   8 O        1.637    -0.384    20.546     6.119
    55   6 C        3.755    -0.124    22.933     6.828
    56   1 H        0.925     0.054     2.277     2.359
    57   1 H        0.925     0.054     2.275     2.359
    58   1 H        0.925     0.050     2.324     2.384
    59   6 C        3.755    -0.122    22.890     6.822
    60   1 H        0.925     0.040     2.454     2.450
    61   1 H        0.925     0.052     2.289     2.366
    62   1 H        0.925     0.048     2.340     2.392
    63   5 B        2.626     0.400    16.073     6.777
    64   8 O        1.637    -0.373    20.346     6.089
    65   6 C        3.834     0.125    18.520     6.123
    66   6 C        3.755    -0.129    23.038     6.844
    67   1 H        0.925     0.058     2.228     2.334
    68   1 H        0.925     0.054     2.274     2.358
    69   1 H        0.925     0.051     2.306     2.375
    70   6 C        3.755    -0.130    23.056     6.847
    71   1 H        0.925     0.061     2.192     2.315
    72   1 H        0.925     0.052     2.298     2.371
    73   1 H        0.925     0.054     2.277     2.359
    74   6 C        3.828     0.126    18.513     6.122
    75   8 O        1.637    -0.381    20.492     6.110
    76   6 C        3.755    -0.125    22.958     6.832
    77   1 H        0.925     0.051     2.303     2.373
    78   1 H        0.925     0.054     2.277     2.360
    79   1 H        0.925     0.055     2.256     2.349
    80   6 C        3.755    -0.124    22.939     6.829
    81   1 H        0.925     0.040     2.446     2.446
    82   1 H        0.925     0.053     2.278     2.360
    83   1 H        0.925     0.055     2.259     2.350
    84   1 H        0.926     0.055     2.254     2.348
    85   1 H        0.926     0.053     2.281     2.362
    86   6 C        2.826    -0.015    28.380     8.729
    87   6 C        2.925    -0.051    29.279     8.874
    88   6 C        3.110    -0.023    28.432     8.736
    89   6 C        2.939     0.046    26.978     8.519
    90   1 H        0.926     0.028     2.611     2.527
    91   6 C        3.086     0.133    25.015     8.199
    92   6 C        2.993    -0.066    29.623     8.928
    93   7 N        1.831    -0.274    27.968     7.837
    94   1 H        0.925     0.038     2.470     2.458
    95   7 N        2.814    -0.076    22.721     7.079
    96   6 C        3.021     0.001    27.991     8.678
    97   1 H        0.926     0.083     1.948     2.183
    98   6 C        2.646     0.416    20.002     7.317
    99   1 H        0.926     0.069     2.101     2.266
   100   8 O        0.858    -0.481    23.378     6.483
   101   8 O        1.703    -0.278    18.619     5.826
   102   6 C        3.781     0.156    18.102     6.061
   103   6 C        3.756    -0.129    23.027     6.842
   104   6 C        3.758    -0.133    23.113     6.854
   105   6 C        3.756    -0.128    23.014     6.840
   106   1 H        0.925     0.051     2.304     2.374
   107   1 H        0.925     0.061     2.186     2.312
   108   1 H        0.925     0.062     2.177     2.307
   109   1 H        0.925     0.064     2.151     2.294
   110   1 H        0.925     0.065     2.136     2.286
   111   1 H        0.925     0.063     2.166     2.301
   112   1 H        0.925     0.060     2.203     2.321
   113   1 H        0.925     0.050     2.321     2.383
   114   1 H        0.925     0.062     2.172     2.305

 Mol. C6AA /au·bohr⁶  :     137416.545452
 Mol. C8AA /au·bohr⁸  :    3582932.995720
 Mol. α(0) /au        :        572.064905


Wiberg/Mayer (AO) data.
largest (>0.10) Wiberg bond orders for each atom

 ---------------------------------------------------------------------------
     #   Z sym  total        # sym  WBO       # sym  WBO       # sym  WBO
 ---------------------------------------------------------------------------
     1   7 N    3.404 --     6 C    1.391     2 C    1.315    19 Ir   0.437
     2   6 C    3.978 --     3 C    1.351     1 N    1.315    10 C    1.088
     3   6 C    3.988 --     4 C    1.480     2 C    1.351     9 H    0.961
                             6 C    0.106
     4   6 C    3.985 --     3 C    1.480     5 C    1.387    84 H    0.968
     5   6 C    3.978 --     6 C    1.457     4 C    1.387     8 H    0.968
     6   6 C    3.977 --     5 C    1.457     1 N    1.391     7 H    0.956
                             3 C    0.106
     7   1 H    0.996 --     6 C    0.956
     8   1 H    0.996 --     5 C    0.968
     9   1 H    0.997 --     3 C    0.961
    10   6 C    3.978 --    15 C    1.354    11 N    1.308     2 C    1.088
    11   7 N    3.412 --    12 C    1.387    10 C    1.308    19 Ir   0.432
    12   6 C    3.973 --    13 C    1.456    11 N    1.387    18 H    0.946
                            15 C    0.105
    13   6 C    3.981 --    12 C    1.456    14 C    1.388    17 H    0.969
    14   6 C    3.982 --    15 C    1.478    13 C    1.388    85 H    0.969
    15   6 C    3.988 --    14 C    1.478    10 C    1.354    16 H    0.961
                            12 C    0.105
    16   1 H    0.997 --    15 C    0.961
    17   1 H    0.997 --    13 C    0.969
    18   1 H    0.994 --    12 C    0.946
    19  77 Ir   5.184 --    63 B    0.864    42 B    0.846    21 B    0.720
                            86 C    0.615    20 H    0.538     1 N    0.437
                            11 N    0.432
    20   1 H    0.991 --    19 Ir   0.538    86 C    0.333
    21   5 B    3.269 --    33 O    1.114    22 O    1.091    19 Ir   0.720
    22   8 O    2.189 --    21 B    1.091    23 C    0.942
    23   6 C    3.943 --    24 C    0.997    28 C    0.990    22 O    0.942
                            32 C    0.942
    24   6 C    3.993 --    23 C    0.997    26 H    0.984    27 H    0.983
                            25 H    0.983
    25   1 H    0.997 --    24 C    0.983
    26   1 H    0.997 --    24 C    0.984
    27   1 H    0.997 --    24 C    0.983
    28   6 C    3.997 --    23 C    0.990    31 H    0.985    30 H    0.984
                            29 H    0.984
    29   1 H    0.997 --    28 C    0.984
    30   1 H    0.998 --    28 C    0.984
    31   1 H    0.999 --    28 C    0.985
    32   6 C    3.940 --    38 C    0.997    34 C    0.991    23 C    0.942
                            33 O    0.938
    33   8 O    2.204 --    21 B    1.114    32 C    0.938
    34   6 C    3.994 --    32 C    0.991    36 H    0.984    35 H    0.984
                            37 H    0.983
    35   1 H    0.998 --    34 C    0.984
    36   1 H    0.997 --    34 C    0.984
    37   1 H    0.997 --    34 C    0.983
    38   6 C    3.994 --    32 C    0.997    41 H    0.984    39 H    0.983
                            40 H    0.982
    39   1 H    0.998 --    38 C    0.983
    40   1 H    0.997 --    38 C    0.982
    41   1 H    0.997 --    38 C    0.984
    42   5 B    3.341 --    43 O    1.130    54 O    1.105    19 Ir   0.846
    43   8 O    2.237 --    42 B    1.130    44 C    0.936
    44   6 C    3.936 --    45 C    0.996    49 C    0.991    53 C    0.938
                            43 O    0.936
    45   6 C    3.992 --    44 C    0.996    48 H    0.983    46 H    0.982
                            47 H    0.981
    46   1 H    0.997 --    45 C    0.982
    47   1 H    0.996 --    45 C    0.981
    48   1 H    0.996 --    45 C    0.983
    49   6 C    3.993 --    44 C    0.991    50 H    0.983    51 H    0.983
                            52 H    0.979
    50   1 H    0.997 --    49 C    0.983
    51   1 H    0.997 --    49 C    0.983
    52   1 H    0.997 --    49 C    0.979
    53   6 C    3.937 --    55 C    0.996    59 C    0.992    44 C    0.938
                            54 O    0.934
    54   8 O    2.227 --    42 B    1.105    53 C    0.934
    55   6 C    3.993 --    53 C    0.996    58 H    0.983    57 H    0.983
                            56 H    0.983
    56   1 H    0.997 --    55 C    0.983
    57   1 H    0.997 --    55 C    0.983
    58   1 H    0.996 --    55 C    0.983
    59   6 C    3.994 --    53 C    0.992    62 H    0.983    61 H    0.983
                            60 H    0.980
    60   1 H    0.998 --    59 C    0.980
    61   1 H    0.996 --    59 C    0.983
    62   1 H    0.997 --    59 C    0.983
    63   5 B    3.363 --    64 O    1.120    75 O    1.112    19 Ir   0.864
    64   8 O    2.235 --    63 B    1.120    65 C    0.936
    65   6 C    3.936 --    70 C    0.997    66 C    0.992    74 C    0.938
                            64 O    0.936
    66   6 C    3.992 --    65 C    0.992    69 H    0.983    68 H    0.982
                            67 H    0.979
    67   1 H    0.997 --    66 C    0.979
    68   1 H    0.997 --    66 C    0.982
    69   1 H    0.996 --    66 C    0.983
    70   6 C    3.992 --    65 C    0.997    72 H    0.983    73 H    0.982
                            71 H    0.982
    71   1 H    0.996 --    70 C    0.982
    72   1 H    0.996 --    70 C    0.983
    73   1 H    0.997 --    70 C    0.982
    74   6 C    3.935 --    76 C    0.996    80 C    0.991    65 C    0.938
                            75 O    0.936
    75   8 O    2.231 --    63 B    1.112    74 C    0.936
    76   6 C    3.992 --    74 C    0.996    77 H    0.983    78 H    0.983
                            79 H    0.982
    77   1 H    0.996 --    76 C    0.983
    78   1 H    0.997 --    76 C    0.983
    79   1 H    0.997 --    76 C    0.982
    80   6 C    3.994 --    74 C    0.991    81 H    0.983    83 H    0.983
                            82 H    0.983
    81   1 H    0.998 --    80 C    0.983
    82   1 H    0.997 --    80 C    0.983
    83   1 H    0.996 --    80 C    0.983
    84   1 H    0.996 --     4 C    0.968
    85   1 H    0.996 --    14 C    0.969
    86   6 C    3.936 --    87 C    1.394    88 C    1.309    19 Ir   0.615
                            20 H    0.333
    87   6 C    3.983 --    89 C    1.412    86 C    1.394    90 H    0.964
    88   6 C    3.984 --    86 C    1.309    91 C    1.255    92 C    1.174
    89   6 C    3.976 --    93 N    1.420    87 C    1.412    94 H    0.963
    90   1 H    0.999 --    87 C    0.964
    91   6 C    3.951 --    93 N    1.370    88 C    1.255    95 N    1.096
    92   6 C    3.981 --    96 C    1.690    88 C    1.174    97 H    0.955
    93   7 N    3.046 --    89 C    1.420    91 C    1.370
    94   1 H    0.997 --    89 C    0.963
    95   7 N    3.594 --    96 C    1.096    91 C    1.096    98 C    1.080
                           100 O    0.104
    96   6 C    3.935 --    92 C    1.690    95 N    1.096    99 H    0.965
    97   1 H    0.992 --    92 C    0.955
    98   6 C    3.941 --   100 O    1.624   101 O    1.158    95 N    1.080
    99   1 H    0.994 --    96 C    0.965
   100   8 O    1.956 --    98 C    1.624   101 O    0.156    95 N    0.104
   101   8 O    2.306 --    98 C    1.158   102 C    0.874   100 O    0.156
   102   6 C    3.898 --   104 C    0.996   103 C    0.996   105 C    0.996
                           101 O    0.874
   103   6 C    3.991 --   102 C    0.996   106 H    0.984   108 H    0.982
                           107 H    0.981
   104   6 C    3.989 --   102 C    0.996   111 H    0.983   109 H    0.983
                           110 H    0.982
   105   6 C    3.991 --   102 C    0.996   113 H    0.985   114 H    0.982
                           112 H    0.981
   106   1 H    0.997 --   103 C    0.984
   107   1 H    0.996 --   103 C    0.981
   108   1 H    0.996 --   103 C    0.982
   109   1 H    0.996 --   104 C    0.983
   110   1 H    0.995 --   104 C    0.982
   111   1 H    0.996 --   104 C    0.983
   112   1 H    0.996 --   105 C    0.981
   113   1 H    0.998 --   105 C    0.985
   114   1 H    0.996 --   105 C    0.982
 ---------------------------------------------------------------------------

Topologies differ in total number of bonds
Writing topology from bond orders to xtbtopo.mol

molecular dipole:
                 x           y           z       tot (Debye)
 q only:       -0.853       0.409      -1.808
   full:       -2.041       0.724      -2.529       8.464
molecular quadrupole (traceless):
                xx          xy          yy          xz          yz          zz
 q only:        4.880       6.710       4.571     -20.850       8.618      -9.451
  q+dip:       11.107       7.291       5.965     -20.219      17.051     -17.071
   full:        7.550       7.934      10.521     -22.239      14.666     -18.072


           -------------------------------------------------
          | TOTAL ENERGY             -167.435619299008 Eh   |
          | GRADIENT NORM               0.033821531983 Eh/α |
          | HOMO-LUMO GAP               0.922656634867 eV   |
           -------------------------------------------------

------------------------------------------------------------------------
 * finished run on 2022/01/14 at 13:24:41.499     
------------------------------------------------------------------------
 total:
 * wall-time:     0 d,  0 h,  0 min,  0.143 sec
 *  cpu-time:     0 d,  0 h,  0 min,  0.836 sec
 * ratio c/w:     5.829 speedup
 SCF:
 * wall-time:     0 d,  0 h,  0 min,  0.109 sec
 *  cpu-time:     0 d,  0 h,  0 min,  0.651 sec
 * ratio c/w:     5.967 speedup

