45
 energy: -69.846324724400 gnorm: 0.000372536198 xtb: 6.4.1 (1a32961)
C        -1.77395162262657   -0.66254578821812    2.30996628424222
C        -2.14103855365143    0.62431484364962    2.63202323267032
C        -1.34088327058184    1.71796550791215    2.28607230582683
C        -0.15120746108252    1.54882435170881    1.61136164933198
C         0.22408468654606    0.25175622379733    1.28061126246639
N         1.32724460196699   -0.21249536181445    0.62701727760980
C         1.24981446636495   -1.57293849197387    0.53786264172993
C         0.10547899024045   -2.02274962174049    1.13371736442726
C        -0.36491928510781   -3.43705171259680    1.21471048697207
C        -1.13159344303827   -3.83497727588820   -0.06521897214727
N        -2.25382819037264   -2.96154194135876   -0.29022156595984
C        -2.59215485941457   -2.53325348616838   -1.52755597486045
O        -1.89711206871471   -2.69233542383213   -2.51069600864807
O        -3.76693352179971   -1.89381287737904   -1.47935693170168
C        -4.35428551429991   -1.28756134597035   -2.66584209704588
C        -4.64171562100224   -2.35941009882553   -3.71725639724471
C        -5.65888191741647   -0.67523261783668   -2.15319583784205
C        -3.43342826376243   -0.20136775762168   -3.22058328702703
C        -1.60137819884738   -5.28231430217968    0.04785088137435
O        -2.75116638076011   -5.60678635208715    0.22777324645348
O        -0.58538690561965   -6.12621022504084   -0.06054783853114
C        -0.84765852071961   -7.52922090406474    0.05055046895884
C        -0.57875971676110   -0.86639795544368    1.61945651701409
H        -2.39928123474334   -1.49789109554052    2.58886786339547
H        -3.06564497896931    0.80061635031534    3.16293853059583
H        -1.66477419278208    2.71255664572905    2.55623336394297
H         0.46757236280985    2.39395564117925    1.34847456146115
H         2.07242662258597    0.35411737832120    0.25954200910153
H         2.02424499961463   -2.13764026265400    0.05537792781657
H        -1.02659857249998   -3.55952221902524    2.07381117478422
H         0.48317699084153   -4.11410115829149    1.32174732271316
H        -0.47394504259454   -3.74641517556410   -0.93580440185709
H        -2.95517805394316   -2.89745254237907    0.43176031336524
H        -5.25949328795445   -3.14593670357811   -3.28894196361367
H        -3.71282641826152   -2.79844899686234   -4.07174969986260
H        -5.16586294468866   -1.91434280176645   -4.55775931442804
H        -6.29117662577204   -1.45040058295024   -1.72903049355859
H        -6.18470024441158   -0.19252191989234   -2.97081499150093
H        -5.44555712692657    0.05890028009848   -1.38118974069132
H        -2.49925108039738   -0.63845288597924   -3.56296333782046
H        -3.21567808248653    0.53366654826045   -2.44908204266814
H        -3.91905666335648    0.29363502065963   -4.05630697413209
H        -0.22631480171973   -8.02386006080327   -0.69232113746220
H        -1.90425776732946   -7.72750201860074   -0.13173328949978
H        -0.57622328653760   -7.85957682771489    1.05332561186236
