      -----------------------------------------------------------      
     |                   =====================                   |     
     |                           x T B                           |     
     |                   =====================                   |     
     |                         S. Grimme                         |     
     |          Mulliken Center for Theoretical Chemistry        |     
     |                    University of Bonn                     |     
      -----------------------------------------------------------      

   * xtb version 6.4.1 (1a32961) compiled by 'knkr256@seskscpg007.prim.scp' on 2021-10-19

   xtb is free software: you can redistribute it and/or modify it under
   the terms of the GNU Lesser General Public License as published by
   the Free Software Foundation, either version 3 of the License, or
   (at your option) any later version.
   
   xtb is distributed in the hope that it will be useful,
   but WITHOUT ANY WARRANTY; without even the implied warranty of
   MERCHANTABILITY or FITNESS FOR A PARTICULAR PURPOSE.  See the
   GNU Lesser General Public License for more details.
   
   Cite this work as:
   * C. Bannwarth, E. Caldeweyher, S. Ehlert, A. Hansen, P. Pracht,
     J. Seibert, S. Spicher, S. Grimme, WIREs Comput. Mol. Sci., 2020, 11,
     e01493. DOI: 10.1002/wcms.1493
   
   for GFN2-xTB:
   * C. Bannwarth, S. Ehlert and S. Grimme., J. Chem. Theory Comput., 2019,
     15, 1652-1671. DOI: 10.1021/acs.jctc.8b01176
   for GFN1-xTB:
   * S. Grimme, C. Bannwarth, P. Shushkov, J. Chem. Theory Comput., 2017,
     13, 1989-2009. DOI: 10.1021/acs.jctc.7b00118
   for GFN0-xTB:
   * P. Pracht, E. Caldeweyher, S. Ehlert, S. Grimme, ChemRxiv, 2019, preprint.
     DOI: 10.26434/chemrxiv.8326202.v1
   for GFN-FF:
   * S. Spicher and S. Grimme, Angew. Chem. Int. Ed., 2020, 59, 15665-15673.
     DOI: 10.1002/anie.202004239
   
   for ALPB and GBSA implicit solvation:
   * S. Ehlert, M. Stahn, S. Spicher, S. Grimme, J. Chem. Theory Comput.,
     2021, 17, 4250-4261. DOI: 10.1021/acs.jctc.1c00471
   
   for DFT-D4:
   * E. Caldeweyher, C. Bannwarth and S. Grimme, J. Chem. Phys., 2017,
     147, 034112. DOI: 10.1063/1.4993215
   * E. Caldeweyher, S. Ehlert, A. Hansen, H. Neugebauer, S. Spicher,
     C. Bannwarth and S. Grimme, J. Chem. Phys., 2019, 150, 154122.
     DOI: 10.1063/1.5090222
   * E. Caldeweyher, J.-M. Mewes, S. Ehlert and S. Grimme, Phys. Chem. Chem. Phys.
     2020, 22, 8499-8512. DOI: 10.1039/D0CP00502A
   
   for sTDA-xTB:
   * S. Grimme and C. Bannwarth, J. Chem. Phys., 2016, 145, 054103.
     DOI: 10.1063/1.4959605
   
   in the mass-spec context:
   * V. Asgeirsson, C. Bauer and S. Grimme, Chem. Sci., 2017, 8, 4879.
     DOI: 10.1039/c7sc00601b
   * J. Koopman and S. Grimme, ACS Omega 2019, 4, 12, 15120-15133.
     DOI: 10.1021/acsomega.9b02011
   
   for metadynamics refer to:
   * S. Grimme, J. Chem. Theory Comput., 2019, 155, 2847-2862
     DOI: 10.1021/acs.jctc.9b00143
   
   for SPH calculations refer to:
   * S. Spicher and S. Grimme, J. Chem. Theory Comput., 2021, 17, 1701-1714
     DOI: 10.1021/acs.jctc.0c01306
   
   with help from (in alphabetical order)
   P. Atkinson, C. Bannwarth, F. Bohle, G. Brandenburg, E. Caldeweyher
   M. Checinski, S. Dohm, S. Ehlert, S. Ehrlich, I. Gerasimov, J. Koopman
   C. Lavigne, S. Lehtola, F. März, M. Müller, F. Musil, H. Neugebauer
   J. Pisarek, C. Plett, P. Pracht, J. Seibert, P. Shushkov, S. Spicher
   M. Stahn, M. Steiner, T. Strunk, J. Stückrath, T. Rose, and J. Unsleber
   
 * started run on 2022/01/14 at 13:17:57.606     

           -------------------------------------------------
          |                Calculation Setup                |
           -------------------------------------------------

          program call               : xtb xtbopt.xyz --sp --alpb thf -P 6
          hostname                   : seskscpg007.prim.scp
          coordinate file            : xtbopt.xyz
          omp threads                :                     6
          number of atoms            :                    93
          number of electrons        :                   246
          charge                     :                     0
          spin                       :                   0.0
          first test random number   :      0.75168116618548

   ID    Z sym.   atoms
    1    7 N      1, 11, 88, 91
    2    6 C      2-6, 10, 12-15, 23, 24, 28, 32, 34, 38, 44, 45, 49, 53, 55,
                  59, 65, 66, 70, 74, 76, 80, 86, 87, 89
    3    1 H      7-9, 16-18, 20, 25-27, 29-31, 35-37, 39-41, 46-48, 50-52,
                  56-58, 60-62, 67-69, 71-73, 77-79, 81-85, 90, 92, 93
    4   77 Ir     19
    5    5 B      21, 42, 63
    6    8 O      22, 33, 43, 54, 64, 75

molecular fragmentation (1/2 indicates fragments):
111111111111111111111111111111111111111111111111111111111111111111111111
111111111111122222222
# atoms in fragment 1/2:    85     8
 fragment masses (1/2) :      730.32       67.07
CMA distance (Bohr)    :   8.189
constraining FC (au)   :  0.0500

           -------------------------------------------------
          |                 G F N 2 - x T B                 |
           -------------------------------------------------

        Reference                      10.1021/acs.jctc.8b01176
      * Hamiltonian:
        H0-scaling (s, p, d)           1.850000    2.230000    2.230000
        zeta-weighting                 0.500000
      * Dispersion:
        s8                             2.700000
        a1                             0.520000
        a2                             5.000000
        s9                             5.000000
      * Repulsion:
        kExp                           1.500000    1.000000
        rExp                           1.000000
      * Coulomb:
        alpha                          2.000000
        third order                    shell-resolved
        anisotropic                    true
        a3                             3.000000
        a5                             4.000000
        cn-shift                       1.200000
        cn-exp                         4.000000
        max-rad                        5.000000

      * Solvation model:               ALPB
        Solvent                        thf
        Parameter file                 internal GFN2-xTB/ALPB
        Dielectric constant                7.6000E+00
        Reference state                gsolv [1 M gas/solution]
        Free energy shift                  5.3248E-03 Eh       3.3414E+00 kcal/mol
        Temperature                        2.9815E+02 K
        Density                            8.8300E-01 kg/L
        Solvent mass                       7.2106E+01 g/mol
        Interaction kernel             P16
        Born radius scaling (c1)           1.7311E+00
        Born radii integrator          GBOBC
        Born offset                        0.0000E+00 a0       0.0000E+00 AA
        H-bond correction              true
        Ion screening                  false
        Surface tension                    1.0000E-05 Eh       1.5569E+01 dyn/cm
        Grid points                               230 per atom
q/qsh data taken from xtbrestart
CAMM data taken from xtbrestart

          ...................................................
          :                      SETUP                      :
          :.................................................:
          :  # basis functions                 234          :
          :  # atomic orbitals                 233          :
          :  # shells                          139          :
          :  # electrons                       246          :
          :  max. iterations                   250          :
          :  Hamiltonian                  GFN2-xTB          :
          :  restarted?                       true          :
          :  GBSA solvation                   true          :
          :  PC potential                    false          :
          :  electronic temp.          300.0000000     K    :
          :  accuracy                    1.0000000          :
          :  -> integral cutoff          0.2500000E+02      :
          :  -> integral neglect         0.1000000E-07      :
          :  -> SCF convergence          0.1000000E-05 Eh   :
          :  -> wf. convergence          0.1000000E-03 e    :
          :  Broyden damping             0.4000000          :
          ...................................................

 iter      E             dE          RMSdq      gap      omega  full diag
   1   -136.5040583 -0.136504E+03  0.362E-05    0.85       0.0  T
   2   -136.5040583  0.113687E-11  0.310E-05    0.85     334.4  T
   3   -136.5040583 -0.211742E-10  0.269E-05    0.85     384.9  T

   *** convergence criteria satisfied after 3 iterations ***

         #    Occupation            Energy/Eh            Energy/eV
      -------------------------------------------------------------
         1        2.0000           -0.6717238             -18.2785
       ...           ...                  ...                  ...
       117        2.0000           -0.3667891              -9.9808
       118        2.0000           -0.3434566              -9.3459
       119        2.0000           -0.3260977              -8.8736
       120        2.0000           -0.3172003              -8.6315
       121        2.0000           -0.3152893              -8.5795
       122        2.0000           -0.3068135              -8.3488
       123        2.0000           -0.3046243              -8.2892 (HOMO)
       124        0.0000           -0.2732611              -7.4358 (LUMO)
       125                         -0.2455949              -6.6830
       126                         -0.2428676              -6.6088
       127                         -0.2022709              -5.5041
       128                         -0.1975082              -5.3745
       ...                                ...                  ...
       233                          3.7558309             102.2014
      -------------------------------------------------------------
                  HL-Gap            0.0313632 Eh            0.8534 eV
             Fermi-level           -0.2888975 Eh           -7.8613 eV

 SCC (total)                   0 d,  0 h,  0 min,  0.078 sec
 SCC setup                      ...        0 min,  0.003 sec (  3.894%)
 Dispersion                     ...        0 min,  0.002 sec (  2.930%)
 classical contributions        ...        0 min,  0.000 sec (  0.166%)
 integral evaluation            ...        0 min,  0.010 sec ( 12.177%)
 iterations                     ...        0 min,  0.033 sec ( 42.582%)
 molecular gradient             ...        0 min,  0.029 sec ( 37.293%)
 printout                       ...        0 min,  0.001 sec (  0.851%)

         :::::::::::::::::::::::::::::::::::::::::::::::::::::
         ::                     SUMMARY                     ::
         :::::::::::::::::::::::::::::::::::::::::::::::::::::
         :: total energy            -134.823530652244 Eh    ::
         :: total w/o Gsasa/hb      -134.784464479018 Eh    ::
         :: gradient norm              0.038548544219 Eh/a0 ::
         :: HOMO-LUMO gap              0.853434990692 eV    ::
         ::.................................................::
         :: SCC energy              -136.504058283815 Eh    ::
         :: -> isotropic ES            0.246789450027 Eh    ::
         :: -> anisotropic ES          0.015437044216 Eh    ::
         :: -> anisotropic XC          0.048870453577 Eh    ::
         :: -> dispersion             -0.126788507753 Eh    ::
         :: -> Gsolv                  -0.050734217211 Eh    ::
         ::    -> Gelec               -0.011668043985 Eh    ::
         ::    -> Gsasa               -0.040615974750 Eh    ::
         ::    -> Ghb                 -0.003775013921 Eh    ::
         ::    -> Gshift               0.005324815444 Eh    ::
         :: repulsion energy           1.673199213185 Eh    ::
         :: add. restraining           0.000000000000 Eh    ::
         :: total charge               0.000000000010 e     ::
         :::::::::::::::::::::::::::::::::::::::::::::::::::::

           -------------------------------------------------
          |                Property Printout                |
           -------------------------------------------------

    * Orbital Energies and Occupations

         #    Occupation            Energy/Eh            Energy/eV
      -------------------------------------------------------------
         1        2.0000           -0.6717238             -18.2785
       ...           ...                  ...                  ...
       111        2.0000           -0.3864764             -10.5166
       112        2.0000           -0.3837928             -10.4435
       113        2.0000           -0.3829050             -10.4194
       114        2.0000           -0.3817437             -10.3878
       115        2.0000           -0.3787702             -10.3069
       116        2.0000           -0.3769141             -10.2564
       117        2.0000           -0.3667891              -9.9808
       118        2.0000           -0.3434566              -9.3459
       119        2.0000           -0.3260977              -8.8736
       120        2.0000           -0.3172003              -8.6315
       121        2.0000           -0.3152893              -8.5795
       122        2.0000           -0.3068135              -8.3488
       123        2.0000           -0.3046243              -8.2892 (HOMO)
       124        0.0000           -0.2732611              -7.4358 (LUMO)
       125                         -0.2455949              -6.6830
       126                         -0.2428676              -6.6088
       127                         -0.2022709              -5.5041
       128                         -0.1975082              -5.3745
       129                         -0.1821633              -4.9569
       130                         -0.1504426              -4.0938
       131                         -0.1332589              -3.6262
       132                         -0.1239375              -3.3725
       133                         -0.1183073              -3.2193
       134                         -0.1059585              -2.8833
       ...                                ...                  ...
       233                          3.7558309             102.2014
      -------------------------------------------------------------
                  HL-Gap            0.0313632 Eh            0.8534 eV
             Fermi-level           -0.2888975 Eh           -7.8613 eV

     #   Z          covCN         q      C6AA      α(0)
     1   7 N        2.550    -0.124    23.735     7.235
     2   6 C        2.954     0.074    26.352     8.420
     3   6 C        2.918    -0.045    29.111     8.848
     4   6 C        2.923    -0.024    28.595     8.769
     5   6 C        2.915    -0.045    29.128     8.850
     6   6 C        2.891     0.048    26.921     8.507
     7   1 H        0.926     0.052     2.294     2.369
     8   1 H        0.926     0.053     2.281     2.362
     9   1 H        0.926     0.045     2.389     2.417
    10   6 C        2.953     0.069    26.454     8.436
    11   7 N        2.557    -0.128    23.804     7.246
    12   6 C        2.889     0.041    27.090     8.533
    13   6 C        2.915    -0.046    29.149     8.853
    14   6 C        2.922    -0.027    28.678     8.782
    15   6 C        2.918    -0.046    29.146     8.853
    16   1 H        0.926     0.043     2.414     2.430
    17   1 H        0.926     0.049     2.329     2.387
    18   1 H        0.926     0.077     2.005     2.214
    19  77 Ir       5.944    -0.168   389.693    36.505
    20   1 H        0.977     0.097     1.803     2.098
    21   5 B        2.634     0.404    15.992     6.753
    22   8 O        1.638    -0.408    21.009     6.187
    23   6 C        3.835     0.130    18.453     6.111
    24   6 C        3.755    -0.121    22.866     6.818
    25   1 H        0.925     0.053     2.288     2.365
    26   1 H        0.925     0.044     2.398     2.421
    27   1 H        0.925     0.051     2.307     2.375
    28   6 C        3.754    -0.109    22.632     6.784
    29   1 H        0.925     0.047     2.363     2.404
    30   1 H        0.925     0.042     2.429     2.437
    31   1 H        0.925     0.027     2.633     2.537
    32   6 C        3.842     0.131    18.433     6.107
    33   8 O        1.637    -0.407    20.999     6.186
    34   6 C        3.755    -0.121    22.873     6.819
    35   1 H        0.925     0.053     2.288     2.365
    36   1 H        0.925     0.045     2.389     2.417
    37   1 H        0.925     0.049     2.335     2.390
    38   6 C        3.754    -0.120    22.849     6.816
    39   1 H        0.925     0.046     2.375     2.410
    40   1 H        0.925     0.053     2.278     2.360
    41   1 H        0.925     0.045     2.389     2.417
    42   5 B        2.632     0.406    15.974     6.750
    43   8 O        1.637    -0.379    20.458     6.105
    44   6 C        3.840     0.128    18.475     6.115
    45   6 C        3.754    -0.127    23.000     6.838
    46   1 H        0.925     0.060     2.198     2.319
    47   1 H        0.925     0.055     2.264     2.353
    48   1 H        0.925     0.049     2.333     2.388
    49   6 C        3.754    -0.120    22.864     6.818
    50   1 H        0.925     0.048     2.342     2.393
    51   1 H        0.925     0.047     2.364     2.404
    52   1 H        0.925     0.049     2.335     2.390
    53   6 C        3.838     0.127    18.489     6.117
    54   8 O        1.637    -0.382    20.515     6.114
    55   6 C        3.754    -0.125    22.946     6.830
    56   1 H        0.925     0.053     2.284     2.363
    57   1 H        0.925     0.054     2.266     2.354
    58   1 H        0.925     0.048     2.347     2.396
    59   6 C        3.755    -0.128    23.007     6.839
    60   1 H        0.925     0.055     2.259     2.350
    61   1 H        0.925     0.051     2.302     2.373
    62   1 H        0.925     0.049     2.329     2.386
    63   5 B        2.627     0.405    16.014     6.764
    64   8 O        1.637    -0.378    20.431     6.101
    65   6 C        3.834     0.125    18.530     6.124
    66   6 C        3.755    -0.133    23.113     6.855
    67   1 H        0.925     0.061     2.184     2.311
    68   1 H        0.925     0.056     2.243     2.342
    69   1 H        0.925     0.050     2.319     2.381
    70   6 C        3.755    -0.129    23.028     6.843
    71   1 H        0.925     0.061     2.188     2.313
    72   1 H        0.925     0.050     2.319     2.381
    73   1 H        0.925     0.051     2.309     2.376
    74   6 C        3.829     0.127    18.494     6.119
    75   8 O        1.637    -0.380    20.477     6.108
    76   6 C        3.755    -0.124    22.931     6.828
    77   1 H        0.925     0.050     2.315     2.379
    78   1 H        0.925     0.052     2.291     2.367
    79   1 H        0.925     0.056     2.244     2.343
    80   6 C        3.755    -0.121    22.869     6.819
    81   1 H        0.925     0.040     2.447     2.446
    82   1 H        0.925     0.047     2.356     2.400
    83   1 H        0.925     0.054     2.270     2.356
    84   1 H        0.926     0.050     2.319     2.381
    85   1 H        0.926     0.046     2.371     2.408
    86   6 C        2.995     0.032    27.280     8.568
    87   6 C        3.030    -0.070    29.709     8.941
    88   7 N        1.996    -0.241    27.086     7.719
    89   6 C        2.993    -0.014    28.359     8.735
    90   1 H        0.926     0.007     2.931     2.677
    91   7 N        2.985    -0.018    21.584     6.900
    92   1 H        0.926     0.039     2.459     2.452
    93   1 H        0.860     0.201     1.103     1.645

 Mol. C6AA /au·bohr⁶  :      91555.285786
 Mol. C8AA /au·bohr⁸  :    2443943.252044
 Mol. α(0) /au        :        467.977044


Wiberg/Mayer (AO) data.
largest (>0.10) Wiberg bond orders for each atom

 ---------------------------------------------------------------------------
     #   Z sym  total        # sym  WBO       # sym  WBO       # sym  WBO
 ---------------------------------------------------------------------------
     1   7 N    3.404 --     6 C    1.386     2 C    1.306    19 Ir   0.452
     2   6 C    3.979 --     3 C    1.343     1 N    1.306    10 C    1.098
     3   6 C    3.988 --     4 C    1.489     2 C    1.343     9 H    0.962
                             6 C    0.106
     4   6 C    3.985 --     3 C    1.489     5 C    1.375    84 H    0.969
     5   6 C    3.979 --     6 C    1.464     4 C    1.375     8 H    0.969
     6   6 C    3.978 --     5 C    1.464     1 N    1.386     7 H    0.957
                             3 C    0.106
     7   1 H    0.997 --     6 C    0.957
     8   1 H    0.996 --     5 C    0.969
     9   1 H    0.998 --     3 C    0.962
    10   6 C    3.978 --    15 C    1.350    11 N    1.294     2 C    1.098
    11   7 N    3.407 --    12 C    1.377    10 C    1.294    19 Ir   0.449
    12   6 C    3.973 --    13 C    1.465    11 N    1.377    18 H    0.947
                            15 C    0.105
    13   6 C    3.983 --    12 C    1.465    14 C    1.377    17 H    0.969
    14   6 C    3.981 --    15 C    1.482    13 C    1.377    85 H    0.969
    15   6 C    3.989 --    14 C    1.482    10 C    1.350    16 H    0.962
                            12 C    0.105
    16   1 H    0.998 --    15 C    0.962
    17   1 H    0.997 --    13 C    0.969
    18   1 H    0.994 --    12 C    0.947
    19  77 Ir   5.231 --    42 B    0.866    63 B    0.864    21 B    0.720
                            86 C    0.592    20 H    0.547     1 N    0.452
                            11 N    0.449
    20   1 H    0.989 --    19 Ir   0.547    86 C    0.339
    21   5 B    3.272 --    33 O    1.106    22 O    1.093    19 Ir   0.720
    22   8 O    2.192 --    21 B    1.093    23 C    0.943
    23   6 C    3.944 --    24 C    0.996    28 C    0.990    22 O    0.943
                            32 C    0.941
    24   6 C    3.994 --    23 C    0.996    26 H    0.984    27 H    0.983
                            25 H    0.983
    25   1 H    0.997 --    24 C    0.983
    26   1 H    0.997 --    24 C    0.984
    27   1 H    0.997 --    24 C    0.983
    28   6 C    3.997 --    23 C    0.990    31 H    0.985    29 H    0.984
                            30 H    0.984
    29   1 H    0.997 --    28 C    0.984
    30   1 H    0.998 --    28 C    0.984
    31   1 H    0.999 --    28 C    0.985
    32   6 C    3.941 --    38 C    0.997    34 C    0.991    23 C    0.941
                            33 O    0.940
    33   8 O    2.194 --    21 B    1.106    32 C    0.940
    34   6 C    3.994 --    32 C    0.991    36 H    0.984    37 H    0.982
                            35 H    0.981
    35   1 H    0.997 --    34 C    0.981
    36   1 H    0.997 --    34 C    0.984
    37   1 H    0.997 --    34 C    0.982
    38   6 C    3.994 --    32 C    0.997    41 H    0.984    39 H    0.983
                            40 H    0.983
    39   1 H    0.998 --    38 C    0.983
    40   1 H    0.997 --    38 C    0.983
    41   1 H    0.997 --    38 C    0.984
    42   5 B    3.337 --    43 O    1.122    54 O    1.103    19 Ir   0.866
    43   8 O    2.230 --    42 B    1.122    44 C    0.936
    44   6 C    3.937 --    45 C    0.997    49 C    0.990    53 C    0.940
                            43 O    0.936
    45   6 C    3.992 --    44 C    0.997    48 H    0.983    47 H    0.982
                            46 H    0.982
    46   1 H    0.996 --    45 C    0.982
    47   1 H    0.997 --    45 C    0.982
    48   1 H    0.996 --    45 C    0.983
    49   6 C    3.994 --    44 C    0.990    50 H    0.984    51 H    0.983
                            52 H    0.981
    50   1 H    0.997 --    49 C    0.984
    51   1 H    0.998 --    49 C    0.983
    52   1 H    0.998 --    49 C    0.981
    53   6 C    3.938 --    55 C    0.997    59 C    0.991    44 C    0.940
                            54 O    0.934
    54   8 O    2.224 --    42 B    1.103    53 C    0.934
    55   6 C    3.993 --    53 C    0.997    58 H    0.983    57 H    0.983
                            56 H    0.983
    56   1 H    0.997 --    55 C    0.983
    57   1 H    0.997 --    55 C    0.983
    58   1 H    0.996 --    55 C    0.983
    59   6 C    3.994 --    53 C    0.991    62 H    0.983    61 H    0.983
                            60 H    0.982
    60   1 H    0.997 --    59 C    0.982
    61   1 H    0.996 --    59 C    0.983
    62   1 H    0.997 --    59 C    0.983
    63   5 B    3.360 --    75 O    1.118    64 O    1.110    19 Ir   0.864
    64   8 O    2.228 --    63 B    1.110    65 C    0.938
    65   6 C    3.937 --    70 C    0.996    66 C    0.991    64 O    0.938
                            74 C    0.938
    66   6 C    3.992 --    65 C    0.991    69 H    0.983    68 H    0.982
                            67 H    0.978
    67   1 H    0.996 --    66 C    0.978
    68   1 H    0.997 --    66 C    0.982
    69   1 H    0.996 --    66 C    0.983
    70   6 C    3.992 --    65 C    0.996    72 H    0.984    73 H    0.983
                            71 H    0.982
    71   1 H    0.996 --    70 C    0.982
    72   1 H    0.996 --    70 C    0.984
    73   1 H    0.997 --    70 C    0.983
    74   6 C    3.935 --    76 C    0.996    80 C    0.991    65 C    0.938
                            75 O    0.936
    75   8 O    2.233 --    63 B    1.118    74 C    0.936
    76   6 C    3.993 --    74 C    0.996    77 H    0.983    78 H    0.982
                            79 H    0.982
    77   1 H    0.996 --    76 C    0.983
    78   1 H    0.997 --    76 C    0.982
    79   1 H    0.997 --    76 C    0.982
    80   6 C    3.995 --    74 C    0.991    81 H    0.984    83 H    0.983
                            82 H    0.983
    81   1 H    0.998 --    80 C    0.984
    82   1 H    0.997 --    80 C    0.983
    83   1 H    0.996 --    80 C    0.983
    84   1 H    0.997 --     4 C    0.969
    85   1 H    0.997 --    14 C    0.969
    86   6 C    3.940 --    88 N    1.483    87 C    1.303    19 Ir   0.592
                            20 H    0.339
    87   6 C    3.976 --    89 C    1.521    86 C    1.303    90 H    0.972
    88   7 N    2.973 --    86 C    1.483    91 N    1.193    89 C    0.161
    89   6 C    3.955 --    87 C    1.521    91 N    1.277    92 H    0.967
                            88 N    0.161
    90   1 H    1.000 --    87 C    0.972
    91   7 N    3.603 --    89 C    1.277    88 N    1.193    93 H    0.930
    92   1 H    0.997 --    89 C    0.967
    93   1 H    0.959 --    91 N    0.930
 ---------------------------------------------------------------------------

Topologies differ in total number of bonds
Writing topology from bond orders to xtbtopo.mol

molecular dipole:
                 x           y           z       tot (Debye)
 q only:        0.300       0.158       0.219
   full:       -1.213       0.310      -0.225       3.234
molecular quadrupole (traceless):
                xx          xy          yy          xz          yz          zz
 q only:        4.162       1.441      -9.305       4.225       5.747       5.143
  q+dip:        3.304       4.424      -9.855       1.416       8.270       6.552
   full:        1.393       5.308      -9.220      -0.780       5.503       7.827


           -------------------------------------------------
          | TOTAL ENERGY             -134.823530652244 Eh   |
          | GRADIENT NORM               0.038548544219 Eh/α |
          | HOMO-LUMO GAP               0.853434990692 eV   |
           -------------------------------------------------

------------------------------------------------------------------------
 * finished run on 2022/01/14 at 13:17:57.712     
------------------------------------------------------------------------
 total:
 * wall-time:     0 d,  0 h,  0 min,  0.106 sec
 *  cpu-time:     0 d,  0 h,  0 min,  0.615 sec
 * ratio c/w:     5.806 speedup
 SCF:
 * wall-time:     0 d,  0 h,  0 min,  0.080 sec
 *  cpu-time:     0 d,  0 h,  0 min,  0.474 sec
 * ratio c/w:     5.943 speedup

