93
 energy: -134.808622157004 gnorm: 0.077231436627 xtb: 6.4.1 (1a32961)
N        -0.96510000000000   -2.11530000000000   -0.24090000000000
C        -2.24700000000000   -1.69840000000000   -0.36220000000000
C        -3.14040000000000   -2.36820000000000   -1.21200000000000
C        -2.70220000000000   -3.47560000000000   -1.93050000000000
C        -1.37780000000000   -3.89880000000000   -1.78760000000000
C        -0.54290000000000   -3.18670000000000   -0.93510000000000
H         0.49810000000000   -3.45630000000000   -0.78940000000000
H        -0.99570000000000   -4.76030000000000   -2.32770000000000
H        -4.16500000000000   -2.02890000000000   -1.31830000000000
C        -2.62130000000000   -0.50950000000000    0.44100000000000
N        -1.62600000000000    0.07330000000000    1.16020000000000
C        -1.89680000000000    1.15240000000000    1.91690000000000
C        -3.17230000000000    1.70330000000000    1.99650000000000
C        -4.20510000000000    1.11740000000000    1.26270000000000
C        -3.92610000000000    0.00250000000000    0.47820000000000
H        -4.71960000000000   -0.46420000000000   -0.09520000000000
H        -3.34630000000000    2.57510000000000    2.62070000000000
H        -1.04450000000000    1.57420000000000    2.43690000000000
Ir        0.42150000000000   -0.81650000000000    0.91330000000000
H         0.87260000000000   -2.23030000000000    1.54050000000000
B         0.50670000000000    0.41560000000000   -0.81540000000000
O         0.19500000000000   -0.04700000000000   -2.09150000000000
C         0.00650000000000    1.10040000000000   -2.95430000000000
C         0.49020000000000    0.74740000000000   -4.35780000000000
H         1.51610000000000    0.37380000000000   -4.33700000000000
H         0.44730000000000    1.62240000000000   -5.01670000000000
H        -0.14740000000000   -0.03390000000000   -4.78430000000000
C        -1.50120000000000    1.39560000000000   -2.96670000000000
H        -1.75370000000000    2.21460000000000   -3.64850000000000
H        -2.03200000000000    0.49450000000000   -3.28930000000000
H        -1.85170000000000    1.65210000000000   -1.96220000000000
C         0.84230000000000    2.20670000000000   -2.22040000000000
O         0.75200000000000    1.78260000000000   -0.83690000000000
C         2.32930000000000    2.18620000000000   -2.59900000000000
H         2.74130000000000    1.18500000000000   -2.45750000000000
H         2.48870000000000    2.51300000000000   -3.63180000000000
H         2.87200000000000    2.86270000000000   -1.93200000000000
C         0.28440000000000    3.62290000000000   -2.33660000000000
H        -0.72650000000000    3.69040000000000   -1.92910000000000
H         0.92130000000000    4.31480000000000   -1.77610000000000
H         0.26430000000000    3.94810000000000   -3.38320000000000
B         1.56300000000000    0.60960000000000    1.84840000000000
O         2.92780000000000    0.55230000000000    2.15020000000000
C         3.36330000000000    1.88660000000000    2.50260000000000
C         4.53140000000000    1.78590000000000    3.47740000000000
H         4.27910000000000    1.16090000000000    4.33690000000000
H         5.39390000000000    1.33790000000000    2.97340000000000
H         4.82390000000000    2.77870000000000    3.83820000000000
C         3.79700000000000    2.56850000000000    1.19670000000000
H         4.20020000000000    3.57090000000000    1.37680000000000
H         4.56740000000000    1.95560000000000    0.72110000000000
H         2.95240000000000    2.63260000000000    0.50540000000000
C         2.05040000000000    2.50090000000000    3.09320000000000
O         1.03750000000000    1.81620000000000    2.31910000000000
C         1.89100000000000    4.00450000000000    2.88650000000000
H         1.87290000000000    4.25440000000000    1.82410000000000
H         0.94940000000000    4.34260000000000    3.33170000000000
H         2.71080000000000    4.55150000000000    3.36630000000000
C         1.82470000000000    2.13200000000000    4.56520000000000
H         1.92610000000000    1.05330000000000    4.71320000000000
H         2.52610000000000    2.65280000000000    5.22540000000000
H         0.80630000000000    2.41580000000000    4.84900000000000
B         2.27820000000000   -1.33090000000000    0.17410000000000
O         2.89460000000000   -2.57740000000000    0.38450000000000
C         4.26930000000000   -2.48200000000000   -0.07210000000000
C         5.10900000000000   -2.05380000000000    1.14010000000000
H         4.76350000000000   -1.08740000000000    1.51750000000000
H         4.98050000000000   -2.79470000000000    1.93590000000000
H         6.17420000000000   -1.99290000000000    0.89300000000000
C         4.71950000000000   -3.84660000000000   -0.58470000000000
H         4.75280000000000   -4.56130000000000    0.24420000000000
H         5.72330000000000   -3.78370000000000   -1.02010000000000
H         4.03500000000000   -4.23600000000000   -1.34170000000000
C         4.16440000000000   -1.36220000000000   -1.16300000000000
O         3.08520000000000   -0.55030000000000   -0.65400000000000
C         5.40720000000000   -0.48870000000000   -1.31550000000000
H         6.27320000000000   -1.09010000000000   -1.61530000000000
H         5.23300000000000    0.26930000000000   -2.08590000000000
H         5.64270000000000    0.02650000000000   -0.38240000000000
C         3.71800000000000   -1.89830000000000   -2.53110000000000
H         2.82530000000000   -2.52160000000000   -2.42740000000000
H         3.46090000000000   -1.05250000000000   -3.17550000000000
H         4.50570000000000   -2.48290000000000   -3.01790000000000
H        -3.38500000000000   -4.00130000000000   -2.59310000000000
H        -5.21400000000000    1.52080000000000    1.29960000000000
C         0.23590000000000   -1.68140000000000    2.96030000000000
C        -0.97434349202626   -2.13483725067984    3.53613443261820
N         1.22713269969845   -1.87242619549670    3.82748718489153
C        -0.65251930064518   -2.56939200981245    4.79896926031108
H        -1.95250692611681   -2.13285984499993    3.08928118176028
N         0.68223291308162   -2.38967111424210    4.93518662526054
H        -1.25035478804256   -2.99732873809150    5.58289407848994
H         1.27622004151429   -2.65132099006857    5.70902918679935
93
 energy: -134.815240594616 gnorm: 0.050638974491 xtb: 6.4.1 (1a32961)
N        -0.96094156033490   -2.10055190282068   -0.24999230715822
C        -2.24014813021178   -1.69054593305291   -0.36426483356931
C        -3.13436330700876   -2.36231243783733   -1.20710328016419
C        -2.70392706793275   -3.46343118299167   -1.92262944675884
C        -1.38318621405773   -3.88186103319830   -1.78324014040646
C        -0.55331729974352   -3.16798514352917   -0.94119326704459
H         0.48056982382983   -3.44799255918000   -0.79186563613664
H        -1.00668564152994   -4.74186798677609   -2.31856869394228
H        -4.15498629311456   -2.02698656375557   -1.31127111900036
C        -2.61168473483752   -0.51478267400540    0.43520573940402
N        -1.61855661327663    0.06428817198719    1.14823166173214
C        -1.89723354994834    1.13669836876829    1.89454662310414
C        -3.16390851834687    1.68605286416648    1.98241812055557
C        -4.19597307664715    1.10209602346422    1.25546644507614
C        -3.91469244827855   -0.00400402599070    0.47505905407929
H        -4.70621026071812   -0.46728494436871   -0.09389965614054
H        -3.33883854007540    2.54937023680390    2.60916177833073
H        -1.05400067896668    1.55480832192769    2.42373461057578
Ir        0.42150000000000   -0.81650000000000    0.91330000000000
H         0.87260000000000   -2.23030000000000    1.54050000000000
B         0.49650952236247    0.42195443755403   -0.79075021146637
O         0.17665909973506   -0.03547096473532   -2.06314129308859
C         0.01097253365676    1.09667374598279   -2.94297873467061
C         0.48969946100284    0.74792094308553   -4.34825716561107
H         1.50874703211944    0.37132227845189   -4.32707291126433
H         0.44464017055567    1.62368551736432   -4.99640843746963
H        -0.14898830780174   -0.02809119807574   -4.76884208050999
C        -1.49327774261777    1.39907282713980   -2.96937664073875
H        -1.73193642586165    2.21225461741303   -3.65332785821487
H        -2.02343383237559    0.50199237633635   -3.28940504691236
H        -1.84016811643705    1.65361021311832   -1.96769657637360
C         0.83213546603176    2.20674729921564   -2.21174536662726
O         0.75606339349411    1.77915347757026   -0.83499064950808
C         2.31456133174366    2.19140856791294   -2.59962016257339
H         2.71926644109998    1.19243516634108   -2.44972822422758
H         2.46595702622495    2.51308283807062   -3.62942785697359
H         2.85661993478011    2.86601879292636   -1.93788585447894
C         0.28015615496020    3.62279023392354   -2.33867095801939
H        -0.72320265566772    3.69164738248900   -1.92639716756352
H         0.91964107465062    4.30650973346183   -1.78182999578445
H         0.26244041369698    3.93550546590016   -3.38291085221921
B         1.56674610375262    0.60632093516808    1.87184158873155
O         2.92989137132331    0.56471902936519    2.13407435138506
C         3.36382420145399    1.88611195328300    2.50970944954459
C         4.53369724104873    1.78980248854934    3.48026272647254
H         4.28068349833670    1.15879105935956    4.32783385789082
H         5.38835127640825    1.34595304642927    2.97190825033429
H         4.81553912738082    2.78030251621221    3.83731865753822
C         3.79882188195390    2.57555210896186    1.21169645119088
H         4.19981773515285    3.57156220717971    1.39553694066970
H         4.56278719789610    1.96420076195061    0.73444746626703
H         2.95062986370288    2.62739124210955    0.53036918021381
C         2.05361816629463    2.50356043553896    3.09061099685269
O         1.04185840446800    1.80448623777120    2.33935367966996
C         1.89288818601498    4.00585185668252    2.88980003824359
H         1.86748937971619    4.24953669860232    1.83151726342168
H         0.95536252018218    4.33515840076357    3.33630430713735
H         2.71331601888814    4.54257053200774    3.36568818140849
C         1.83303470027226    2.13883533677485    4.56233757513628
H         1.93759541294326    1.06251682015965    4.69362342354154
H         2.53418966006655    2.66015771956045    5.21169154956139
H         0.81791836370198    2.41662963577564    4.84644754859983
B         2.27820000000000   -1.33090000000000    0.17410000000000
O         2.89910298797459   -2.56340816838172    0.38351463961733
C         4.26521128007518   -2.48304995962741   -0.07924707981391
C         5.10929932941753   -2.05855276884073    1.12662878521198
H         4.75031760756749   -1.10049929032075    1.49933790041086
H         4.97630194109608   -2.79303490854756    1.91944006255045
H         6.16742446681564   -1.99792553417728    0.87483681455769
C         4.72095711365421   -3.84484128132327   -0.58975600008852
H         4.75011910994249   -4.54879084150426    0.24058318540794
H         5.71911022093374   -3.77294902175649   -1.02112702391778
H         4.03589528951430   -4.23284610829217   -1.33885573885924
C         4.16633822988904   -1.35935840535065   -1.15858327634782
O         3.07340525329502   -0.56317674332286   -0.66330140741759
C         5.40954593364255   -0.49093802543700   -1.31586159664604
H         6.26585354205270   -1.09671411008043   -1.61142579335682
H         5.23144762120587    0.26051542187197   -2.08400623181912
H         5.63639236968200    0.02275612011140   -0.38619419766470
C         3.72998978491113   -1.89838998059368   -2.52714443405170
H         2.83803047179169   -2.51401398793594   -2.41839390735426
H         3.47237394309352   -1.05698465047607   -3.16913069337974
H         4.52013134794725   -2.47553624657920   -3.00472044191039
H        -3.38314298110464   -3.98845824604340   -2.58063926516806
H        -5.20003250190856    1.50338949819729    1.29615296908340
C         0.23590000000000   -1.68140000000000    2.96030000000000
C        -0.97908847686321   -2.13215760446264    3.53482203204025
N         1.21988650310576   -1.86073008099918    3.83640522624880
C        -0.66102593250192   -2.55577154630431    4.80226731937475
H        -1.95323048362094   -2.13603219444681    3.08426925911828
N         0.66929397789003   -2.36940082803897    4.94407723170853
H        -1.25985957779141   -2.97923490806557    5.58469815877672
H         1.25854245951249   -2.62191982680977    5.72246238695010
93
 energy: -134.817261524437 gnorm: 0.041440861215 xtb: 6.4.1 (1a32961)
N        -0.95150903759877   -2.09080525555550   -0.26031245777518
C        -2.22983127460332   -1.68350401861852   -0.36892859054082
C        -3.12902600960291   -2.35558155599113   -1.20582553120374
C        -2.70674984882506   -3.45346215931577   -1.92190833521453
C        -1.38573589083935   -3.87130218486046   -1.78625257824590
C        -0.55641716097567   -3.15699605321002   -0.95010972209079
H         0.47618730926081   -3.44079150092832   -0.80850670805546
H        -1.01467353034710   -4.73066593099823   -2.31982224815959
H        -4.14852889080487   -2.02180134482129   -1.30170354131864
C        -2.59800891005943   -0.51823845017205    0.42685650097943
N        -1.60713160229280    0.05605703640928    1.14162300254361
C        -1.89318824852835    1.12209275599632    1.88423966016421
C        -3.15521693913979    1.67159942574266    1.97523459576443
C        -4.18805618123203    1.08838495816591    1.24844341306921
C        -3.90215626232734   -0.01024903384200    0.46768123624202
H        -4.69096188102742   -0.47514839955961   -0.09919354438009
H        -3.33098407780709    2.53039608242013    2.60225853081098
H        -1.05534591326624    1.54491534620775    2.41507084039247
Ir        0.42150000000000   -0.81650000000000    0.91330000000000
H         0.87260000000000   -2.23030000000000    1.54050000000000
B         0.49853827722808    0.43259888405287   -0.76694764897057
O         0.15785072927432   -0.02483729840822   -2.03293501607817
C         0.00678704784606    1.09454135209756   -2.92244079406923
C         0.49029964793166    0.74178956782657   -4.32554954961757
H         1.50563632920048    0.36181363954071   -4.30575600202273
H         0.44485709130849    1.62104542426860   -4.96318149986249
H        -0.15218309191982   -0.02795889391792   -4.74500481723891
C        -1.49591324894414    1.40575784675494   -2.96832877657960
H        -1.71615486730776    2.21536016584486   -3.65753542143320
H        -2.02525460961931    0.51115056893362   -3.28960640903476
H        -1.84547733193167    1.66319983911003   -1.97068030339997
C         0.82430244469811    2.20689030846681   -2.19760261602296
O         0.76049241191147    1.78367088680293   -0.82599515433579
C         2.30401754590169    2.19754759443998   -2.59648476134428
H         2.70632648465000    1.20039965431280   -2.43985905572937
H         2.44168226511831    2.51219089391780   -3.62708318223913
H         2.84578370307870    2.87662985156997   -1.94290941035431
C         0.26938722583259    3.62138118620788   -2.33341718065147
H        -0.72974911308870    3.69574598410745   -1.91762036100539
H         0.91387554832814    4.30365498698241   -1.78594290108041
H         0.25215679688953    3.91736222482685   -3.37894956197971
B         1.57608743748245    0.61588070489486    1.86789575594839
O         2.93077947797762    0.57783464552003    2.11864724223135
C         3.36417430027442    1.88818872059897    2.51209514972689
C         4.53165383888369    1.78986565092925    3.48627984335284
H         4.28145175383278    1.15141370154391    4.32582381414345
H         5.38430864610412    1.35507309451550    2.97286543777054
H         4.80238719357888    2.77933008730334    3.84366638648627
C         3.80386142877603    2.59028080643197    1.22253466641485
H         4.20061104872880    3.58229088133659    1.41543275475412
H         4.56693650453107    1.98212607356624    0.74478061999189
H         2.95398607059972    2.63640919408455    0.54612172871586
C         2.05459855239949    2.50087095199936    3.09280284584382
O         1.04445991422616    1.79436927078065    2.35587990088046
C         1.89322345891202    4.00313162139136    2.89152811998594
H         1.85937024732542    4.24615512676014    1.83560472890821
H         0.96058810766119    4.32722845653996    3.34490122076674
H         2.71706196630700    4.53121821421712    3.36280445101999
C         1.84684333351207    2.14148889659765    4.56847647100873
H         1.95550195734960    1.06644139772241    4.68867877833841
H         2.54999566959548    2.66579310375460    5.20745954583975
H         0.83376806471501    2.41466325228028    4.85493036342212
B         2.27820000000000   -1.33090000000000    0.17410000000001
O         2.90045503259214   -2.55196241446025    0.38780771351310
C         4.25734856138534   -2.48078819362886   -0.08278715233628
C         5.11009003081112   -2.06050113722482    1.11766017425940
H         4.74420967002992   -1.10665478718766    1.48835066060967
H         4.97786889041926   -2.79380900979586    1.90777425732442
H         6.16221904638646   -1.99979041290858    0.85682073901754
C         4.71413140412663   -3.84167689659928   -0.59652866706855
H         4.74561919017419   -4.53887395528981    0.23536173900692
H         5.70836049610032   -3.75953555779812   -1.02606635959446
H         4.02982947458588   -4.23170530300958   -1.34153014113569
C         4.16188917975891   -1.35770856855391   -1.15855860861353
O         3.06165323447012   -0.57178709799284   -0.67187022126856
C         5.40649192911302   -0.49065586182242   -1.31053443015268
H         6.25492782599536   -1.10358009899322   -1.60074380467153
H         5.23002188898018    0.25463383903714   -2.08093751463318
H         5.62916660425259    0.02421413621815   -0.38341207956720
C         3.74073960776687   -1.89950338093543   -2.53154689908186
H         2.85002119881254   -2.51259774073449   -2.42214183632182
H         3.48672327137848   -1.05985685270482   -3.17363013280529
H         4.53737722440486   -2.47185777688807   -2.99610328783633
H        -3.38720986660541   -3.97925791737119   -2.57335819655671
H        -5.19077027144088    1.48510499958765    1.29338942716504
C         0.23590000000000   -1.68139999999999    2.96029999999999
C        -0.98519340910450   -2.12885394853588    3.52959934128981
N         1.21002911769203   -1.84093351658309    3.85011298876781
C        -0.67696571773914   -2.52799921284411    4.80786024778607
H        -1.95391858411603   -2.14425745321092    3.06983112423519
N         0.64914915628686   -2.33234583464765    4.96008792866752
H        -1.28126016122176   -2.94147088712968    5.59020523444720
H         1.23061522777327   -2.56715170200330    5.74927804001480
93
 energy: -134.818233474662 gnorm: 0.041360937414 xtb: 6.4.1 (1a32961)
N        -0.94129370147666   -2.08809106837029   -0.27034970931909
C        -2.22052874243367   -1.68093717780580   -0.37407828528336
C        -3.12449276013610   -2.35271546226101   -1.20758077815453
C        -2.70805645832464   -3.45010622390840   -1.92555752159665
C        -1.38466874975837   -3.86724289597832   -1.79642793510419
C        -0.55200122286992   -3.15233923077292   -0.96446276672071
H         0.48089946092785   -3.43939248165371   -0.82929659339734
H        -1.01768233983322   -4.72712105150697   -2.33056381534450
H        -4.14399235317777   -2.01751129033532   -1.29642901279974
C        -2.58678085622464   -0.52072580108586    0.42172292266492
N        -1.59669105864598    0.05232035185262    1.13942991903017
C        -1.88681693897683    1.11707018550532    1.88081674559079
C        -3.14883982046019    1.66466570808488    1.97341442407276
C        -4.18236047759888    1.08019548956160    1.24543472049182
C        -3.89244037931788   -0.01417685759052    0.46237805941537
H        -4.67829790299059   -0.48007124090488   -0.10734060362297
H        -3.32635881819920    2.52046884552342    2.60254885568883
H        -1.05256734430161    1.54153821700982    2.41649027501594
Ir        0.42150000000000   -0.81650000000000    0.91330000000000
H         0.87260000000000   -2.23030000000000    1.54050000000000
B         0.48705633597949    0.44710435669256   -0.74647763332684
O         0.13640573075101   -0.01537764537485   -2.00787940876230
C        -0.00178429890681    1.09538636281655   -2.90345263665885
C         0.48911868298466    0.73359419552606   -4.30262255988201
H         1.50194299008424    0.34804751313305   -4.27743165321344
H         0.45019043116189    1.61351145672984   -4.93878572005061
H        -0.15652243710046   -0.03278294836860   -4.72259437036754
C        -1.50338939392687    1.41486857509183   -2.96631958392634
H        -1.70827314893530    2.22253311445669   -3.66162739868308
H        -2.03318000654864    0.52176422286352   -3.28994513082986
H        -1.86137418850152    1.67809916038186   -1.97345991660451
C         0.81611351214851    2.21033554990745   -2.18290180089034
O         0.76195816769862    1.79321029182127   -0.81306736412664
C         2.29419601059593    2.20402953329122   -2.59170405760017
H         2.69917277345097    1.20905725771472   -2.42920895575409
H         2.42146263803083    2.51098335229730   -3.62533099755518
H         2.83680722124328    2.89052399093174   -1.94704507735543
C         0.25863289502310    3.62418900542005   -2.32565236850805
H        -0.73811678962041    3.70187387919700   -1.90545669556266
H         0.90678735425609    4.31061117428357   -1.78822528967412
H         0.23658376945242    3.90745049599401   -3.37413347313551
B         1.57827445220380    0.61148734642761    1.88441571033740
O         2.93462144833830    0.58476043602051    2.10511731864488
C         3.36504769002578    1.88939657991652    2.51287501940139
C         4.53232335712040    1.78745131738946    3.48876242640131
H         4.28479065983195    1.14003784302989    4.32188516346265
H         5.38798846339919    1.36319085387469    2.97196246285543
H         4.79380442771240    2.77601452976669    3.85403424468860
C         3.80780334871665    2.60668749574372    1.23144321110787
H         4.19974333829791    3.59760222298179    1.43581499409087
H         4.57482098936273    2.00525665583411    0.75184527998798
H         2.95916954906341    2.65420845590122    0.55416257730110
C         2.05604334060185    2.49781914436133    3.09930146965420
O         1.04494358241164    1.78415573886345    2.37544449916368
C         1.89052632526463    4.00022199298408    2.89529006534517
H         1.84690729197359    4.24164178170218    1.83946171506133
H         0.96211246522202    4.32354625174148    3.35718043330801
H         2.71916328575760    4.52677121539115    3.35864732524171
C         1.86091802862072    2.14325721205113    4.57904779851586
H         1.97434105656476    1.06897511659246    4.69780142869799
H         2.56804998811305    2.67204529220587    5.20869092022251
H         0.84922023091313    2.41347456446541    4.87155090447741
B         2.27820000000000   -1.33090000000000    0.17410000000001
O         2.90111531522354   -2.54608769091564    0.39356126736204
C         4.25163240231710   -2.47940785712589   -0.08496159199167
C         5.11267514684155   -2.06148029044606    1.11147326912500
H         4.74606441031019   -1.10898042527924    1.48427725579279
H         4.98418101441095   -2.79648819333860    1.90016225881490
H         6.16197861847153   -1.99992018046416    0.84315397461469
C         4.70632390994635   -3.84106459601797   -0.60167594017828
H         4.74190332766226   -4.53697058187771    0.23060689019431
H         5.69827565694185   -3.75395119726251   -1.03401669245691
H         4.02023532528381   -4.23187162024030   -1.34422259513860
C         4.15713935526353   -1.35625433349556   -1.16043208660623
O         3.05177712361034   -0.57579864090137   -0.68138108373759
C         5.40227699318047   -0.48765183566051   -1.30566673603189
H         6.24983393272677   -1.10447045346875   -1.58848293557356
H         5.23049914013131    0.25430179925092   -2.07986890796016
H         5.61953586993648    0.02953932327912   -0.37890660543287
C         3.75006515882699   -1.90012373017317   -2.53805011664892
H         2.86009502365067   -2.51466041052543   -2.43508651273873
H         3.50176195782677   -1.06138609267818   -3.18313704924686
H         4.55389537950393   -2.47038723045695   -2.99128497496195
H        -3.39175971432160   -3.97597900385769   -2.57288117225669
H        -5.18589630036125    1.47321106558265    1.29256714535181
C         0.23590000000001   -1.68139999999999    2.96029999999999
C        -0.99104045948513   -2.12394585330777    3.52249978905641
N         1.19920370744813   -1.81604041065697    3.86583662004036
C        -0.69687627199649   -2.49256372097494    4.81407591534831
H        -1.95342257057529   -2.15513719449183    3.04976499039732
N         0.62571297266850   -2.28577856978217    4.97955673254679
H        -1.30964348389369   -2.89224805235072    5.59735830207141
H         1.19747967868900   -2.49740085364375    5.78321220177192
93
 energy: -134.819346052206 gnorm: 0.041229822412 xtb: 6.4.1 (1a32961)
N        -0.92802612336942   -2.08704910145413   -0.28483991387517
C        -2.20910696669485   -1.67976467771612   -0.38214841135757
C        -3.11809554000641   -2.35193104982038   -1.21199733926788
C        -2.70725094779361   -3.44924647804349   -1.93272798347932
C        -1.38086845436645   -3.86508988849891   -1.81248789267713
C        -0.54295389061330   -3.14932816054301   -0.98523787204627
H         0.49168627155963   -3.43743283365100   -0.85997539081008
H        -1.01761440505284   -4.72479844614939   -2.34988678753315
H        -4.13813247378884   -2.01487681218550   -1.29260154039118
C        -2.57387984441305   -0.52315129853987    0.41598778597566
N        -1.58478091878736    0.04741710827187    1.14036364133560
C        -1.87838126613697    1.11216497083020    1.88236640097916
C        -3.14119377174645    1.65830621430052    1.97401929485349
C        -4.17462729821239    1.07383389932994    1.24238959226193
C        -3.88049727908330   -0.01596231509150    0.45522895251898
H        -4.66277681748430   -0.48170271994962   -0.12028398431215
H        -3.32072721895786    2.51190955982782    2.60559425015348
H        -1.04696856956100    1.53887951943557    2.42197440620677
Ir        0.42150000000000   -0.81650000000000    0.91330000000000
H         0.87260000000000   -2.23030000000000    1.54050000000000
B         0.48441732974644    0.46559649830672   -0.72207041452688
O         0.10766973426539   -0.00099983578722   -1.97529039142322
C        -0.01680118951541    1.09976335579121   -2.87783456082153
C         0.48429487513288    0.72117494514978   -4.27032783910210
H         1.49318493019894    0.32504538135688   -4.23171860186703
H         0.46034089370299    1.59768605117771   -4.91263551868131
H        -0.16540106668465   -0.04227196595766   -4.69036924575810
C        -1.51658817341275    1.43027248508217   -2.96241644861452
H        -1.70376871273993    2.23517889144623   -3.66633634307577
H        -2.04809872795562    0.53889559953910   -3.28880703451645
H        -1.88864707928324    1.70324265858160   -1.97685747415787
C         0.80492321461780    2.21890462379266   -2.16410762331382
O         0.76420238285373    1.80848820380827   -0.79504291548685
C         2.28103263214869    2.21622350267402   -2.58482047432372
H         2.69268210183120    1.22511710651048   -2.41309348546870
H         2.39670146548201    2.51091472453640   -3.62357870696984
H         2.82467718840075    2.91474328300559   -1.95326886353705
C         0.24180350324843    3.63115519289579   -2.31358093028691
H        -0.75141304424408    3.71110689025162   -1.88445115492381
H         0.89418965115320    4.32601074666170   -1.79108271519333
H         0.20801602876076    3.90118144544564   -3.36576495502908
B         1.58368347091567    0.61620310315530    1.88147641749846
O         2.94006817910534    0.59695656494361    2.08210011533488
C         3.36828030231813    1.89422240510835    2.51203730816763
C         4.53482126586735    1.78225674399040    3.49005423572777
H         4.29070102580320    1.11880819086420    4.31240243293455
H         5.39676011681263    1.37474984991433    2.96869066646392
H         4.78591708339452    2.76761414656831    3.87326879234985
C         3.81552708000284    2.63307270761968    1.24274023768769
H         4.19932314050233    3.62369984239228    1.46565327921748
H         4.59104624624886    2.04400862167808    0.76020502935484
H         2.97120423173038    2.68624647035409    0.56021884760045
C         2.05851758032409    2.49357154431473    3.11006943462753
O         1.04427563595560    1.77296485494131    2.40081352330969
C         1.88352705450351    3.99579054696501    2.90372287943884
H         1.82332601267360    4.23420954009230    1.84734904130974
H         0.96121989065216    4.31879251895632    3.37938524257915
H         2.71896312133167    4.52562012071365    3.35251444756603
C         1.88272963306491    2.14485842558990    4.59514936925470
H         2.00272737351823    1.07160399447965    4.71750143068492
H         2.59542164074429    2.68060588335294    5.21316753652968
H         0.87310222336913    2.41192694933200    4.89850149484676
B         2.27819999999999   -1.33090000000000    0.17410000000003
O         2.90363150225138   -2.54031953531856    0.40294090890668
C         4.24733183994732   -2.47868814663826   -0.08677207725931
C         5.11953188183455   -2.06374121949818    1.10443299616982
H         4.75505515634747   -1.11210963630574    1.48269523068328
H         4.99787233459878   -2.80225711633342    1.89164199630211
H         6.16649911720620   -2.00053055486337    0.82716109797353
C         4.69544361808210   -3.84269373160658   -0.60658285154969