17
 energy: -26.890109981749 gnorm: 0.000121477174 xtb: 6.4.1 (1a32961)
C         1.56939468138482   -1.34248506936302   -0.00121601018632
C         0.38279700788492   -0.62989138716094   -0.00097816810650
C         0.37259959319439    0.78238942105879    0.00056117557092
N        -0.87667097206786    1.33933338967085    0.00044814845276
C        -1.80779943791445    0.46947275500185   -0.00108478069018
S        -1.25320567758615   -1.22350212735717   -0.00255756251042
C        -3.25516492809236    0.76874293690716   -0.00151849036169
C         1.57808839655023    1.47714730671176    0.00199564530103
C         2.75781165087634    0.76165170452743    0.00176210114083
C         2.75484001952741   -0.63171826652554    0.00017914325046
H         1.56234515112131   -2.42123876373969   -0.00254656785323
H        -3.39912478445578    1.84548861301724   -0.00408618161228
H        -3.72712422017390    0.33809721640623    0.88031007439359
H        -3.72766113846650    0.33351291547084   -0.88076024304702
H         1.56629664203414    2.55509501852537    0.00332434608565
H         3.69977345211978    1.28875431368794    0.00288357489736
H         3.69209456406366   -1.16700997683907   -0.00002620472495
