17
 energy: -26.885270047301 gnorm: 0.072349233262 xtb: 6.4.1 (1a32961)
C         1.56783000000000   -1.34110000000000   -0.00194000000000
C         0.37113000000000   -0.60487000000000   -0.00271000000000
C         0.36648000000000    0.79156000000000   -0.00144000000000
N        -0.88661000000000    1.38162000000000   -0.00170000000000
C        -1.81757000000000    0.45465000000000   -0.00241000000000
S        -1.25725000000000   -1.16718000000000   -0.00511000000000
C        -3.27787000000000    0.74151000000000   -0.00042000000000
C         1.59878000000000    1.47528000000000    0.00103000000000
C         2.79528000000000    0.75229000000000    0.00296000000000
C         2.77743000000000   -0.63891000000000    0.00146000000000
H         1.55539000000000   -2.42699000000000   -0.00450000000000
H        -3.45233000000000    1.82249000000000   -0.00393000000000
H        -3.75560000000000    0.32716000000000    0.89275000000000
H        -3.76002000000000    0.32048000000000   -0.88799000000000
H         1.60488000000000    2.56044000000000    0.00147000000000
H         3.74329000000000    1.28464000000000    0.00594000000000
H         3.71605000000000   -1.18923000000000    0.00323000000000
17
 energy: -26.888955958266 gnorm: 0.035567410758 xtb: 6.4.1 (1a32961)
C         1.56428241883468   -1.33855685162215   -0.00206314970012
C         0.37819448687841   -0.61429518819138   -0.00270906162661
C         0.37079408619327    0.79079423700904   -0.00105180392562
N        -0.87957828843511    1.36141595440937   -0.00093518999428
C        -1.80382220383526    0.45579448022114   -0.00221464909544
S        -1.25492351118874   -1.18946785229486   -0.00437168807475
C        -3.25750549629123    0.75391618859604   -0.00073350123145
C         1.58737627085655    1.47830293694537    0.00122593057118
C         2.76732046718034    0.75713931995774    0.00269038445650
C         2.75611336680272   -0.63543410577776    0.00113290931994
H         1.55195071001239   -2.41812410254798   -0.00381085768810
H        -3.41673947685077    1.83172254399264   -0.00412373905431
H        -3.73029934839438    0.32697767799621    0.88427223137963
H        -3.73402190929046    0.32044119352873   -0.88048583853771
H         1.58965555823467    2.55791759239330    0.00207615019158
H         3.71017588474392    1.28605567570048    0.00529206599553
H         3.69031698454902   -1.18075970031591    0.00249980701401
17
 energy: -26.889887104053 gnorm: 0.012548144227 xtb: 6.4.1 (1a32961)
C         1.56525504624613   -1.33972201065565   -0.00174766654708
C         0.38253487626407   -0.62387500054057   -0.00219562478639
C         0.37191806040785    0.78812068550852   -0.00052161488051
N        -0.87768300918066    1.34328118320106   -0.00052313151516
C        -1.80038955828632    0.45957416388946   -0.00183296536697
S        -1.25535888460737   -1.21017887053030   -0.00381819557635
C        -3.24962552798744    0.76410342822717   -0.00102202448842
C         1.57913713159912    1.47968673751189    0.00155358186701
C         2.75386977646680    0.76129753742437    0.00232647622985
C         2.74937632804482   -0.63300978542895    0.00071552447070
H         1.55322919724765   -2.41724373290425   -0.00329846199389
H        -3.39289674091411    1.84002240655409   -0.00437291927888
H        -3.72028584646379    0.33256448659813    0.88070764816556
H        -3.72303176375469    0.32622974018851   -0.87808486138923
H         1.57380192989152    2.55685750200643    0.00283173042652
H         3.69542834191021    1.28739090113783    0.00447211195871
H         3.68401064311621   -1.17125937218774    0.00150039270455
17
 energy: -26.890035456461 gnorm: 0.007361283802 xtb: 6.4.1 (1a32961)
C         1.56762247209811   -1.34151516950711   -0.00157654825520
C         0.38323111841385   -0.62774366883615   -0.00174540450370
C         0.37184712158354    0.78564296534839   -0.00005904281268
N        -0.87772490046228    1.33868324395191   -0.00004616301581
C        -1.80370606307595    0.46222036432108   -0.00155936264878
S        -1.25561080497306   -1.21823712593774   -0.00335235433315
C        -3.25185978185802    0.76721543074017   -0.00125572134300
C         1.57762654205904    1.47901818730077    0.00181565989727
C         2.75449043322028    0.76211216407057    0.00210524331038
C         2.75198079336215   -0.63212229626007    0.00045007051733
H         1.55715304945339   -2.41963406979754   -0.00297760592319
H        -3.39062777965015    1.84351452591057   -0.00453634407352
H        -3.72318183625282    0.33684577719041    0.88062075723758
H        -3.72517819246318    0.33077699618123   -0.87900883867525
H         1.56817707315841    2.55646675096047    0.00320382082726
H         3.69657888966361    1.28787127556137    0.00381239720121
H         3.68847186572309   -1.16727535119832    0.00079943659325
17
 energy: -26.890102031081 gnorm: 0.002465145703 xtb: 6.4.1 (1a32961)
C         1.57002770881144   -1.34303048234047   -0.00132456170059
C         0.38366209988209   -0.63065784968475   -0.00115889469720
C         0.37195869959355    0.78267301983577    0.00049866098022
N        -0.87748377872608    1.33694825378845    0.00041487923121
C        -1.80773957035314    0.46594030045112   -0.00121317010161
S        -1.25456874438429   -1.22440599128004   -0.00287147898699
C        -3.25510309230966    0.76926740478734   -0.00148785195494
C         1.57720285078915    1.47754428837742    0.00206477445516
C         2.75688076665471    0.76214812322930    0.00184445108189
C         2.75518965893646   -0.63142759625610    0.00019884632576
H         1.56212614735250   -2.42187022747355   -0.00271762122066
H        -3.39362589277169    1.84621936591224   -0.00463018933736
H        -3.72766686894342    0.34049340937177    0.88076411666814
H        -3.72872443254180    0.33484810996498   -0.88034812959499
H         1.56452128869093    2.55552607469395    0.00350359261777
H         3.69932045768284    1.28846518105173    0.00309689068639
H         3.69331270163641   -1.16484138442918    0.00005568554780
17
 energy: -26.890108022233 gnorm: 0.001092111299 xtb: 6.4.1 (1a32961)
C         1.57009787713705   -1.34299563146827   -0.00128441899837
C         0.38349245342571   -0.63069478192296   -0.00102931111280
C         0.37214841202570    0.78205959986690    0.00059896189961
N        -0.87717749605223    1.33779571967512    0.00050122050822
C        -1.80821558422879    0.46760923229443   -0.00112295461055
S        -1.25372525958687   -1.22473046261772   -0.00269805967495
C        -3.25541783061013    0.76928859755378   -0.00153022251721
C         1.57744501986958    1.47708768661580    0.00208264100439
C         2.75748711305691    0.76191077223433    0.00180679899587
C         2.75538902767342   -0.63143917621555    0.00015690731060
H         1.56302395650911   -2.42185468711863   -0.00266403619012
H        -3.39619506517630    1.84630311467929   -0.00453401192900
H        -3.72806676540943    0.34022004939552    0.88065303144743
H        -3.72884321092421    0.33485277632529   -0.88061405990392
H         1.56477979353265    2.55511179622102    0.00348961774213
H         3.69969898009188    1.28874788260986    0.00294872811176
H         3.69336857866596   -1.16543248812822   -0.00007083208311
17
 energy: -26.890109695753 gnorm: 0.000560174595 xtb: 6.4.1 (1a32961)
C         1.56953488048321   -1.34256568509290   -0.00122005937264
C         0.38290707661442   -0.63004789335455   -0.00094452591443
C         0.37253404438346    0.78204505079479    0.00060370153668
N        -0.87668589639597    1.33935325121041    0.00048912277672
C        -1.80798555681910    0.46958648355112   -0.00106433110295
S        -1.25295448741667   -1.22383139769370   -0.00255206473402
C        -3.25520092067582    0.76885264547774   -0.00153475184091
C         1.57799571487645    1.47693930018535    0.00202639116618
C         2.75788169616942    0.76161940868893    0.00175578971621
C         2.75494494047402   -0.63166040589411    0.00015635265703
H         1.56286609002766   -2.42131625750538   -0.00259426084345
H        -3.39931967277468    1.84570521244204   -0.00422982475829
H        -3.72739419656568    0.33853815398229    0.88037248646651
H        -3.72792048307051    0.33373016247835   -0.88075175959549
H         1.56608050004900    2.55489887632155    0.00337960031509
H         3.69974203059322    1.28894247696280    0.00288077236921
H         3.69226424004756   -1.16694938255474   -0.00008263884146
17
 energy: -26.890109981026 gnorm: 0.000121998854 xtb: 6.4.1 (1a32961)
C         1.56939468138482   -1.34248506936302   -0.00121601018632
C         0.38279700788492   -0.62989138716094   -0.00097816810650
C         0.37259959319439    0.78238942105879    0.00056117557092
N        -0.87667097206786    1.33933338967085    0.00044814845276
C        -1.80779943791445    0.46947275500185   -0.00108478069018
S        -1.25320567758615   -1.22350212735717   -0.00255756251042
C        -3.25516492809236    0.76874293690716   -0.00151849036169
C         1.57808839655023    1.47714730671176    0.00199564530103
C         2.75781165087634    0.76165170452743    0.00176210114083
C         2.75484001952741   -0.63171826652554    0.00017914325046
H         1.56234515112131   -2.42123876373969   -0.00254656785323
H        -3.39912478445578    1.84548861301724   -0.00408618161228
H        -3.72712422017390    0.33809721640623    0.88031007439359
H        -3.72766113846650    0.33351291547084   -0.88076024304702
H         1.56629664203414    2.55509501852537    0.00332434608565
H         3.69977345211978    1.28875431368794    0.00288357489736
H         3.69209456406366   -1.16700997683907   -0.00002620472495
