20
 energy: -30.888904081875 gnorm: 0.000090848992 xtb: 6.4.1 (1a32961)
C        -0.89801238987220    1.42742416423931   -0.00092372629449
C         0.27138590214484    0.69281409613798   -0.00005800740044
C         0.28242562890300   -0.71457310339733   -0.00033738153015
N         1.60241761755475   -1.12459950543524    0.00075588656332
C         2.29955086608883   -0.04250919345774    0.00162664683865
O         1.56902724720157    1.11002538424444    0.00120927122504
C         3.77499532570684    0.05578909439218    0.00287610935451
C        -0.90369087954252   -1.44481085608331   -0.00155748129719
C        -0.90264059153737   -2.93981498105430   -0.00190851958787
C        -2.07235844398692   -0.69712594840072   -0.00238750102936
C        -2.07298053498622    0.69548008852382   -0.00208810890367
H        -0.88913239230589    2.50487928599214   -0.00069091432592
H         4.19598049245403   -0.94391013175272    0.00330002912963
H         4.10859174493117    0.60071212275118    0.88437137902583
H         4.11003583146993    0.60055067024851   -0.87817614919736
H         0.11965710204917   -3.30584223869960   -0.00255913188424
H        -1.41990102100809   -3.31804291195439   -0.88230769379417
H        -1.41877848035284   -3.31839946669599    0.87900829050646
H        -3.01862838733348   -1.21794707258113   -0.00334110235434
H        -3.01643463757860    1.21976050298289   -0.00278189504424
