      -----------------------------------------------------------      
     |                   =====================                   |     
     |                           x T B                           |     
     |                   =====================                   |     
     |                         S. Grimme                         |     
     |          Mulliken Center for Theoretical Chemistry        |     
     |                    University of Bonn                     |     
      -----------------------------------------------------------      

   * xtb version 6.4.1 (1a32961) compiled by 'knkr256@seskscpg007.prim.scp' on 2021-10-19

   xtb is free software: you can redistribute it and/or modify it under
   the terms of the GNU Lesser General Public License as published by
   the Free Software Foundation, either version 3 of the License, or
   (at your option) any later version.
   
   xtb is distributed in the hope that it will be useful,
   but WITHOUT ANY WARRANTY; without even the implied warranty of
   MERCHANTABILITY or FITNESS FOR A PARTICULAR PURPOSE.  See the
   GNU Lesser General Public License for more details.
   
   Cite this work as:
   * C. Bannwarth, E. Caldeweyher, S. Ehlert, A. Hansen, P. Pracht,
     J. Seibert, S. Spicher, S. Grimme, WIREs Comput. Mol. Sci., 2020, 11,
     e01493. DOI: 10.1002/wcms.1493
   
   for GFN2-xTB:
   * C. Bannwarth, S. Ehlert and S. Grimme., J. Chem. Theory Comput., 2019,
     15, 1652-1671. DOI: 10.1021/acs.jctc.8b01176
   for GFN1-xTB:
   * S. Grimme, C. Bannwarth, P. Shushkov, J. Chem. Theory Comput., 2017,
     13, 1989-2009. DOI: 10.1021/acs.jctc.7b00118
   for GFN0-xTB:
   * P. Pracht, E. Caldeweyher, S. Ehlert, S. Grimme, ChemRxiv, 2019, preprint.
     DOI: 10.26434/chemrxiv.8326202.v1
   for GFN-FF:
   * S. Spicher and S. Grimme, Angew. Chem. Int. Ed., 2020, 59, 15665-15673.
     DOI: 10.1002/anie.202004239
   
   for ALPB and GBSA implicit solvation:
   * S. Ehlert, M. Stahn, S. Spicher, S. Grimme, J. Chem. Theory Comput.,
     2021, 17, 4250-4261. DOI: 10.1021/acs.jctc.1c00471
   
   for DFT-D4:
   * E. Caldeweyher, C. Bannwarth and S. Grimme, J. Chem. Phys., 2017,
     147, 034112. DOI: 10.1063/1.4993215
   * E. Caldeweyher, S. Ehlert, A. Hansen, H. Neugebauer, S. Spicher,
     C. Bannwarth and S. Grimme, J. Chem. Phys., 2019, 150, 154122.
     DOI: 10.1063/1.5090222
   * E. Caldeweyher, J.-M. Mewes, S. Ehlert and S. Grimme, Phys. Chem. Chem. Phys.
     2020, 22, 8499-8512. DOI: 10.1039/D0CP00502A
   
   for sTDA-xTB:
   * S. Grimme and C. Bannwarth, J. Chem. Phys., 2016, 145, 054103.
     DOI: 10.1063/1.4959605
   
   in the mass-spec context:
   * V. Asgeirsson, C. Bauer and S. Grimme, Chem. Sci., 2017, 8, 4879.
     DOI: 10.1039/c7sc00601b
   * J. Koopman and S. Grimme, ACS Omega 2019, 4, 12, 15120-15133.
     DOI: 10.1021/acsomega.9b02011
   
   for metadynamics refer to:
   * S. Grimme, J. Chem. Theory Comput., 2019, 155, 2847-2862
     DOI: 10.1021/acs.jctc.9b00143
   
   for SPH calculations refer to:
   * S. Spicher and S. Grimme, J. Chem. Theory Comput., 2021, 17, 1701-1714
     DOI: 10.1021/acs.jctc.0c01306
   
   with help from (in alphabetical order)
   P. Atkinson, C. Bannwarth, F. Bohle, G. Brandenburg, E. Caldeweyher
   M. Checinski, S. Dohm, S. Ehlert, S. Ehrlich, I. Gerasimov, J. Koopman
   C. Lavigne, S. Lehtola, F. März, M. Müller, F. Musil, H. Neugebauer
   J. Pisarek, C. Plett, P. Pracht, J. Seibert, P. Shushkov, S. Spicher
   M. Stahn, M. Steiner, T. Strunk, J. Stückrath, T. Rose, and J. Unsleber
   
 * started run on 2022/01/14 at 14:30:43.314     

           -------------------------------------------------
          |                Calculation Setup                |
           -------------------------------------------------

          program call               : xtb xtbopt.xyz --sp --alpb thf -P 6
          hostname                   : seskscpg007.prim.scp
          coordinate file            : xtbopt.xyz
          omp threads                :                     6
          number of atoms            :                   119
          number of electrons        :                   314
          charge                     :                     0
          spin                       :                   0.0
          first test random number   :      0.14513037695367

   ID    Z sym.   atoms
    1    7 N      1, 11
    2    6 C      2-6, 10, 12-15, 23, 24, 28, 32, 34, 38, 44, 45, 49, 53, 55,
                  59, 65, 66, 70, 74, 76, 80, 86-89, 91, 93, 96, 97, 102-107
    3    1 H      7-9, 16-18, 20, 25-27, 29-31, 35-37, 39-41, 46-48, 50-52,
                  56-58, 60-62, 67-69, 71-73, 77-79, 81-85, 90, 92, 94, 98,
                  108-119
    4   77 Ir     19
    5    5 B      21, 42, 63, 99
    6    8 O      22, 33, 43, 54, 64, 75, 95, 100, 101

molecular fragmentation (1/2 indicates fragments):
111111111111111111111111111111111111111111111111111111111111111111111111
11111111111112222222222222222222222222222222222
# atoms in fragment 1/2:    85    34
 fragment masses (1/2) :      730.32      243.09
CMA distance (Bohr)    :  15.174
constraining FC (au)   :  0.0500

           -------------------------------------------------
          |                 G F N 2 - x T B                 |
           -------------------------------------------------

        Reference                      10.1021/acs.jctc.8b01176
      * Hamiltonian:
        H0-scaling (s, p, d)           1.850000    2.230000    2.230000
        zeta-weighting                 0.500000
      * Dispersion:
        s8                             2.700000
        a1                             0.520000
        a2                             5.000000
        s9                             5.000000
      * Repulsion:
        kExp                           1.500000    1.000000
        rExp                           1.000000
      * Coulomb:
        alpha                          2.000000
        third order                    shell-resolved
        anisotropic                    true
        a3                             3.000000
        a5                             4.000000
        cn-shift                       1.200000
        cn-exp                         4.000000
        max-rad                        5.000000

      * Solvation model:               ALPB
        Solvent                        thf
        Parameter file                 internal GFN2-xTB/ALPB
        Dielectric constant                7.6000E+00
        Reference state                gsolv [1 M gas/solution]
        Free energy shift                  5.3248E-03 Eh       3.3414E+00 kcal/mol
        Temperature                        2.9815E+02 K
        Density                            8.8300E-01 kg/L
        Solvent mass                       7.2106E+01 g/mol
        Interaction kernel             P16
        Born radius scaling (c1)           1.7311E+00
        Born radii integrator          GBOBC
        Born offset                        0.0000E+00 a0       0.0000E+00 AA
        H-bond correction              true
        Ion screening                  false
        Surface tension                    1.0000E-05 Eh       1.5569E+01 dyn/cm
        Grid points                               230 per atom
q/qsh data taken from xtbrestart
CAMM data taken from xtbrestart

          ...................................................
          :                      SETUP                      :
          :.................................................:
          :  # basis functions                 299          :
          :  # atomic orbitals                 298          :
          :  # shells                          178          :
          :  # electrons                       314          :
          :  max. iterations                   250          :
          :  Hamiltonian                  GFN2-xTB          :
          :  restarted?                       true          :
          :  GBSA solvation                   true          :
          :  PC potential                    false          :
          :  electronic temp.          300.0000000     K    :
          :  accuracy                    1.0000000          :
          :  -> integral cutoff          0.2500000E+02      :
          :  -> integral neglect         0.1000000E-07      :
          :  -> SCF convergence          0.1000000E-05 Eh   :
          :  -> wf. convergence          0.1000000E-03 e    :
          :  Broyden damping             0.4000000          :
          ...................................................

 iter      E             dE          RMSdq      gap      omega  full diag
   1   -174.9274633 -0.174927E+03  0.649E-05    0.90       0.0  T
   2   -174.9274633  0.146110E-08  0.129E-04    0.90      70.9  T
   3   -174.9274633 -0.173759E-08  0.366E-05    0.90     250.7  T

   *** convergence criteria satisfied after 3 iterations ***

         #    Occupation            Energy/Eh            Energy/eV
      -------------------------------------------------------------
         1        2.0000           -0.7186262             -19.5548
       ...           ...                  ...                  ...
       151        2.0000           -0.3710082             -10.0956
       152        2.0000           -0.3453492              -9.3974
       153        2.0000           -0.3304427              -8.9918
       154        2.0000           -0.3222786              -8.7696
       155        2.0000           -0.3187122              -8.6726
       156        2.0000           -0.3108589              -8.4589
       157        2.0000           -0.3083663              -8.3911 (HOMO)
       158                         -0.2751782              -7.4880 (LUMO)
       159                         -0.2475500              -6.7362
       160                         -0.2447153              -6.6590
       161                         -0.2429856              -6.6120
       162                         -0.2047765              -5.5723
       ...                                ...                  ...
       298                          3.7738120             102.6907
      -------------------------------------------------------------
                  HL-Gap            0.0331881 Eh            0.9031 eV
             Fermi-level           -0.2917390 Eh           -7.9386 eV

 SCC (total)                   0 d,  0 h,  0 min,  0.125 sec
 SCC setup                      ...        0 min,  0.003 sec (  2.485%)
 Dispersion                     ...        0 min,  0.004 sec (  3.150%)
 classical contributions        ...        0 min,  0.000 sec (  0.177%)
 integral evaluation            ...        0 min,  0.015 sec ( 11.781%)
 iterations                     ...        0 min,  0.048 sec ( 38.370%)
 molecular gradient             ...        0 min,  0.054 sec ( 43.210%)
 printout                       ...        0 min,  0.001 sec (  0.775%)

         :::::::::::::::::::::::::::::::::::::::::::::::::::::
         ::                     SUMMARY                     ::
         :::::::::::::::::::::::::::::::::::::::::::::::::::::
         :: total energy            -172.752588984559 Eh    ::
         :: total w/o Gsasa/hb      -172.701800528092 Eh    ::
         :: gradient norm              0.034668639747 Eh/a0 ::
         :: HOMO-LUMO gap              0.903094347734 eV    ::
         ::.................................................::
         :: SCC energy              -174.927463346048 Eh    ::
         :: -> isotropic ES            0.321614257658 Eh    ::
         :: -> anisotropic ES          0.017438070502 Eh    ::
         :: -> anisotropic XC          0.051279951612 Eh    ::
         :: -> dispersion             -0.157736976153 Eh    ::
         :: -> Gsolv                  -0.064718311728 Eh    ::
         ::    -> Gelec               -0.013929855260 Eh    ::
         ::    -> Gsasa               -0.052741214724 Eh    ::
         ::    -> Ghb                 -0.003372057188 Eh    ::
         ::    -> Gshift               0.005324815444 Eh    ::
         :: repulsion energy           2.167135054543 Eh    ::
         :: add. restraining           0.000000000000 Eh    ::
         :: total charge               0.000000000002 e     ::
         :::::::::::::::::::::::::::::::::::::::::::::::::::::

           -------------------------------------------------
          |                Property Printout                |
           -------------------------------------------------

    * Orbital Energies and Occupations

         #    Occupation            Energy/Eh            Energy/eV
      -------------------------------------------------------------
         1        2.0000           -0.7186262             -19.5548
       ...           ...                  ...                  ...
       145        2.0000           -0.3931014             -10.6968
       146        2.0000           -0.3876141             -10.5475
       147        2.0000           -0.3853759             -10.4866
       148        2.0000           -0.3821608             -10.3991
       149        2.0000           -0.3814931             -10.3810
       150        2.0000           -0.3810204             -10.3681
       151        2.0000           -0.3710082             -10.0956
       152        2.0000           -0.3453492              -9.3974
       153        2.0000           -0.3304427              -8.9918
       154        2.0000           -0.3222786              -8.7696
       155        2.0000           -0.3187122              -8.6726
       156        2.0000           -0.3108589              -8.4589
       157        2.0000           -0.3083663              -8.3911 (HOMO)
       158                         -0.2751782              -7.4880 (LUMO)
       159                         -0.2475500              -6.7362
       160                         -0.2447153              -6.6590
       161                         -0.2429856              -6.6120
       162                         -0.2047765              -5.5723
       163                         -0.2018099              -5.4915
       164                         -0.1938036              -5.2737
       165                         -0.1721665              -4.6849
       166                         -0.1472961              -4.0081
       167                         -0.1256697              -3.4196
       168                         -0.1217659              -3.3134
       ...                                ...                  ...
       298                          3.7738120             102.6907
      -------------------------------------------------------------
                  HL-Gap            0.0331881 Eh            0.9031 eV
             Fermi-level           -0.2917390 Eh           -7.9386 eV

     #   Z          covCN         q      C6AA      α(0)
     1   7 N        2.555    -0.119    23.621     7.218
     2   6 C        2.955     0.076    26.294     8.410
     3   6 C        2.918    -0.043    29.066     8.841
     4   6 C        2.923    -0.023    28.572     8.766
     5   6 C        2.915    -0.044    29.086     8.844
     6   6 C        2.892     0.047    26.940     8.510
     7   1 H        0.926     0.053     2.282     2.362
     8   1 H        0.926     0.056     2.242     2.341
     9   1 H        0.926     0.048     2.344     2.394
    10   6 C        2.953     0.073    26.366     8.422
    11   7 N        2.561    -0.123    23.696     7.229
    12   6 C        2.890     0.041    27.082     8.532
    13   6 C        2.915    -0.045    29.119     8.849
    14   6 C        2.922    -0.025    28.617     8.773
    15   6 C        2.918    -0.045    29.117     8.849
    16   1 H        0.926     0.047     2.361     2.403
    17   1 H        0.926     0.051     2.303     2.373
    18   1 H        0.926     0.077     2.009     2.217
    19  77 Ir       5.952    -0.154   387.952    36.424
    20   1 H        0.977     0.090     1.869     2.136
    21   5 B        2.629     0.402    16.037     6.766
    22   8 O        1.638    -0.408    21.013     6.188
    23   6 C        3.836     0.130    18.450     6.111
    24   6 C        3.755    -0.122    22.899     6.823
    25   1 H        0.925     0.054     2.270     2.356
    26   1 H        0.925     0.045     2.382     2.413
    27   1 H        0.925     0.052     2.299     2.371
    28   6 C        3.754    -0.110    22.653     6.787
    29   1 H        0.925     0.048     2.349     2.397
    30   1 H        0.925     0.042     2.425     2.435
    31   1 H        0.925     0.028     2.612     2.527
    32   6 C        3.841     0.130    18.440     6.109
    33   8 O        1.637    -0.402    20.902     6.171
    34   6 C        3.755    -0.121    22.867     6.818
    35   1 H        0.925     0.049     2.327     2.386
    36   1 H        0.925     0.047     2.362     2.403
    37   1 H        0.925     0.050     2.321     2.382
    38   6 C        3.754    -0.120    22.864     6.818
    39   1 H        0.925     0.047     2.352     2.398
    40   1 H        0.925     0.053     2.279     2.361
    41   1 H        0.925     0.045     2.377     2.411
    42   5 B        2.626     0.403    16.041     6.770
    43   8 O        1.637    -0.383    20.527     6.116
    44   6 C        3.837     0.129    18.469     6.114
    45   6 C        3.754    -0.126    22.966     6.833
    46   1 H        0.925     0.054     2.265     2.353
    47   1 H        0.925     0.056     2.243     2.342
    48   1 H        0.925     0.049     2.331     2.388
    49   6 C        3.755    -0.122    22.895     6.823
    50   1 H        0.925     0.049     2.330     2.387
    51   1 H        0.925     0.046     2.369     2.407
    52   1 H        0.925     0.053     2.282     2.362
    53   6 C        3.833     0.128    18.485     6.117
    54   8 O        1.637    -0.383    20.532     6.116
    55   6 C        3.755    -0.125    22.951     6.831
    56   1 H        0.925     0.055     2.257     2.350
    57   1 H        0.925     0.055     2.264     2.353
    58   1 H        0.925     0.048     2.339     2.392
    59   6 C        3.755    -0.121    22.877     6.820
    60   1 H        0.925     0.042     2.428     2.437
    61   1 H        0.925     0.051     2.301     2.372
    62   1 H        0.925     0.049     2.338     2.391
    63   5 B        2.625     0.400    16.083     6.780
    64   8 O        1.637    -0.378    20.445     6.103
    65   6 C        3.832     0.125    18.526     6.124
    66   6 C        3.755    -0.130    23.050     6.846
    67   1 H        0.925     0.059     2.210     2.325
    68   1 H        0.925     0.052     2.289     2.366
    69   1 H        0.925     0.050     2.323     2.384
    70   6 C        3.755    -0.129    23.035     6.844
    71   1 H        0.925     0.060     2.203     2.321
    72   1 H        0.925     0.051     2.311     2.377
    73   1 H        0.925     0.052     2.293     2.368
    74   6 C        3.828     0.126    18.510     6.122
    75   8 O        1.637    -0.379    20.452     6.104
    76   6 C        3.755    -0.125    22.944     6.830
    77   1 H        0.925     0.051     2.310     2.377
    78   1 H        0.925     0.054     2.271     2.357
    79   1 H        0.925     0.055     2.263     2.352
    80   6 C        3.755    -0.123    22.920     6.826
    81   1 H        0.925     0.041     2.438     2.442
    82   1 H        0.925     0.051     2.305     2.374
    83   1 H        0.925     0.055     2.263     2.353
    84   1 H        0.926     0.054     2.276     2.359
    85   1 H        0.926     0.050     2.315     2.379
    86   6 C        2.833    -0.025    28.620     8.767
    87   6 C        2.922    -0.038    28.937     8.821
    88   6 C        2.910    -0.064    29.593     8.920
    89   6 C        2.910    -0.047    29.164     8.855
    90   1 H        0.926     0.032     2.556     2.500
    91   6 C        3.087     0.123    25.201     8.229
    92   1 H        0.926     0.053     2.288     2.365
    93   6 C        3.066    -0.022    28.495     8.753
    94   1 H        0.926     0.038     2.478     2.462
    95   8 O        1.720    -0.239    17.964     5.723
    96   6 C        2.987    -0.071    29.754     8.948
    97   6 C        2.974     0.020    27.560     8.611
    98   1 H        0.926     0.046     2.375     2.410
    99   5 B        2.654     0.433    15.573     6.648
   100   8 O        1.637    -0.378    20.441     6.103
   101   8 O        1.637    -0.387    20.605     6.127
   102   6 C        3.858     0.128    18.471     6.112
   103   6 C        3.855     0.128    18.470     6.112
   104   6 C        3.755    -0.126    22.972     6.834
   105   6 C        3.755    -0.129    23.041     6.844
   106   6 C        3.755    -0.130    23.048     6.845
   107   6 C        3.755    -0.127    22.990     6.837
   108   1 H        0.925     0.059     2.205     2.322
   109   1 H        0.925     0.042     2.418     2.432
   110   1 H        0.925     0.058     2.220     2.330
   111   1 H        0.925     0.063     2.160     2.299
   112   1 H        0.925     0.055     2.256     2.349
   113   1 H        0.925     0.057     2.238     2.339
   114   1 H        0.925     0.056     2.249     2.345
   115   1 H        0.925     0.056     2.241     2.341
   116   1 H        0.925     0.063     2.165     2.301
   117   1 H        0.925     0.059     2.212     2.326
   118   1 H        0.925     0.059     2.206     2.323
   119   1 H        0.925     0.044     2.397     2.421

 Mol. C6AA /au·bohr⁶  :     147373.749902
 Mol. C8AA /au·bohr⁸  :    3847305.603125
 Mol. α(0) /au        :        592.069559


Wiberg/Mayer (AO) data.
largest (>0.10) Wiberg bond orders for each atom

 ---------------------------------------------------------------------------
     #   Z sym  total        # sym  WBO       # sym  WBO       # sym  WBO
 ---------------------------------------------------------------------------
     1   7 N    3.410 --     6 C    1.386     2 C    1.308    19 Ir   0.453
     2   6 C    3.978 --     3 C    1.348     1 N    1.308    10 C    1.093
     3   6 C    3.988 --     4 C    1.485     2 C    1.348     9 H    0.962
                             6 C    0.106
     4   6 C    3.985 --     3 C    1.485     5 C    1.380    84 H    0.969
     5   6 C    3.978 --     6 C    1.462     4 C    1.380     8 H    0.968
     6   6 C    3.978 --     5 C    1.462     1 N    1.386     7 H    0.957
                             3 C    0.106
     7   1 H    0.997 --     6 C    0.957
     8   1 H    0.996 --     5 C    0.968
     9   1 H    0.997 --     3 C    0.962
    10   6 C    3.978 --    15 C    1.352    11 N    1.302     2 C    1.093
    11   7 N    3.413 --    12 C    1.385    10 C    1.302    19 Ir   0.439
    12   6 C    3.972 --    13 C    1.458    11 N    1.385    18 H    0.947
                            15 C    0.105
    13   6 C    3.982 --    12 C    1.458    14 C    1.384    17 H    0.969
    14   6 C    3.982 --    15 C    1.479    13 C    1.384    85 H    0.969
    15   6 C    3.989 --    14 C    1.479    10 C    1.352    16 H    0.962
                            12 C    0.105
    16   1 H    0.997 --    15 C    0.962
    17   1 H    0.997 --    13 C    0.969
    18   1 H    0.994 --    12 C    0.947
    19  77 Ir   5.182 --    63 B    0.864    42 B    0.852    21 B    0.725
                            86 C    0.593    20 H    0.536     1 N    0.453
                            11 N    0.439
    20   1 H    0.989 --    19 Ir   0.536    86 C    0.343
    21   5 B    3.274 --    33 O    1.112    22 O    1.091    19 Ir   0.725
    22   8 O    2.191 --    21 B    1.091    23 C    0.942
    23   6 C    3.943 --    24 C    0.997    28 C    0.990    22 O    0.942
                            32 C    0.941
    24   6 C    3.994 --    23 C    0.997    26 H    0.984    27 H    0.983
                            25 H    0.983
    25   1 H    0.997 --    24 C    0.983
    26   1 H    0.997 --    24 C    0.984
    27   1 H    0.997 --    24 C    0.983
    28   6 C    3.997 --    23 C    0.990    31 H    0.985    29 H    0.984
                            30 H    0.984
    29   1 H    0.997 --    28 C    0.984
    30   1 H    0.998 --    28 C    0.984
    31   1 H    0.999 --    28 C    0.985
    32   6 C    3.940 --    38 C    0.997    34 C    0.991    23 C    0.941
                            33 O    0.939
    33   8 O    2.203 --    21 B    1.112    32 C    0.939
    34   6 C    3.994 --    32 C    0.991    36 H    0.984    35 H    0.983
                            37 H    0.983
    35   1 H    0.998 --    34 C    0.983
    36   1 H    0.997 --    34 C    0.984
    37   1 H    0.997 --    34 C    0.983
    38   6 C    3.994 --    32 C    0.997    41 H    0.984    39 H    0.983
                            40 H    0.983
    39   1 H    0.998 --    38 C    0.983
    40   1 H    0.997 --    38 C    0.983
    41   1 H    0.997 --    38 C    0.984
    42   5 B    3.333 --    43 O    1.119    54 O    1.106    19 Ir   0.852
    43   8 O    2.226 --    42 B    1.119    44 C    0.936
    44   6 C    3.937 --    45 C    0.997    49 C    0.991    53 C    0.939
                            43 O    0.936
    45   6 C    3.993 --    44 C    0.997    48 H    0.983    46 H    0.982
                            47 H    0.982
    46   1 H    0.997 --    45 C    0.982
    47   1 H    0.997 --    45 C    0.982
    48   1 H    0.996 --    45 C    0.983
    49   6 C    3.994 --    44 C    0.991    50 H    0.983    51 H    0.983
                            52 H    0.980
    50   1 H    0.997 --    49 C    0.983
    51   1 H    0.998 --    49 C    0.983
    52   1 H    0.997 --    49 C    0.980
    53   6 C    3.938 --    55 C    0.996    59 C    0.991    44 C    0.939
                            54 O    0.935
    54   8 O    2.226 --    42 B    1.106    53 C    0.935
    55   6 C    3.993 --    53 C    0.996    58 H    0.983    57 H    0.983
                            56 H    0.982
    56   1 H    0.997 --    55 C    0.982
    57   1 H    0.997 --    55 C    0.983
    58   1 H    0.996 --    55 C    0.983
    59   6 C    3.994 --    53 C    0.991    61 H    0.983    62 H    0.983
                            60 H    0.982
    60   1 H    0.998 --    59 C    0.982
    61   1 H    0.996 --    59 C    0.983
    62   1 H    0.997 --    59 C    0.983
    63   5 B    3.361 --    75 O    1.120    64 O    1.112    19 Ir   0.864
    64   8 O    2.228 --    63 B    1.112    65 C    0.938
    65   6 C    3.937 --    70 C    0.996    66 C    0.991    64 O    0.938
                            74 C    0.937
    66   6 C    3.992 --    65 C    0.991    69 H    0.983    68 H    0.983
                            67 H    0.978
    67   1 H    0.996 --    66 C    0.978
    68   1 H    0.997 --    66 C    0.983
    69   1 H    0.997 --    66 C    0.983
    70   6 C    3.992 --    65 C    0.996    72 H    0.983    73 H    0.982
                            71 H    0.982
    71   1 H    0.996 --    70 C    0.982
    72   1 H    0.996 --    70 C    0.983
    73   1 H    0.997 --    70 C    0.982
    74   6 C    3.935 --    76 C    0.996    80 C    0.991    65 C    0.937
                            75 O    0.936
    75   8 O    2.235 --    63 B    1.120    74 C    0.936
    76   6 C    3.993 --    74 C    0.996    77 H    0.983    78 H    0.982
                            79 H    0.982
    77   1 H    0.996 --    76 C    0.983
    78   1 H    0.997 --    76 C    0.982
    79   1 H    0.997 --    76 C    0.982
    80   6 C    3.995 --    74 C    0.991    81 H    0.984    83 H    0.983
                            82 H    0.983
    81   1 H    0.998 --    80 C    0.984
    82   1 H    0.997 --    80 C    0.983
    83   1 H    0.996 --    80 C    0.983
    84   1 H    0.996 --     4 C    0.969
    85   1 H    0.996 --    14 C    0.969
    86   6 C    3.937 --    88 C    1.415    87 C    1.326    19 Ir   0.593
                            20 H    0.343
    87   6 C    3.988 --    89 C    1.508    86 C    1.326    90 H    0.964
    88   6 C    3.984 --    86 C    1.415    91 C    1.362    92 H    0.958
                            89 C    0.108
    89   6 C    3.984 --    87 C    1.508    93 C    1.315    94 H    0.968
                            88 C    0.108
    90   1 H    0.998 --    87 C    0.964
    91   6 C    3.917 --    88 C    1.362    93 C    1.258    95 O    1.084
    92   1 H    0.996 --    88 C    0.958
    93   6 C    3.980 --    89 C    1.315    91 C    1.258    96 C    1.224
    94   1 H    0.998 --    89 C    0.968
    95   8 O    2.364 --    91 C    1.084    97 C    1.067
    96   6 C    3.982 --    97 C    1.602    93 C    1.224    98 H    0.972
    97   6 C    3.874 --    96 C    1.602    95 O    1.067    99 B    0.998
    98   1 H    0.997 --    96 C    0.972
    99   5 B    3.391 --   100 O    1.147   101 O    1.138    97 C    0.998
   100   8 O    2.236 --    99 B    1.147   102 C    0.939
   101   8 O    2.226 --    99 B    1.138   103 C    0.937
   102   6 C    3.932 --   105 C    0.997   104 C    0.991   100 O    0.939
                           103 C    0.938
   103   6 C    3.931 --   106 C    0.997   107 C    0.992   102 C    0.938
                           101 O    0.937
   104   6 C    3.992 --   102 C    0.991   109 H    0.984   110 H    0.983
                           108 H    0.982
   105   6 C    3.991 --   102 C    0.997   112 H    0.983   113 H    0.982
                           111 H    0.981
   106   6 C    3.991 --   103 C    0.997   114 H    0.983   115 H    0.982
                           116 H    0.982
   107   6 C    3.993 --   103 C    0.992   119 H    0.984   117 H    0.983
                           118 H    0.982
   108   1 H    0.996 --   104 C    0.982
   109   1 H    0.998 --   104 C    0.984
   110   1 H    0.996 --   104 C    0.983
   111   1 H    0.996 --   105 C    0.981
   112   1 H    0.996 --   105 C    0.983
   113   1 H    0.997 --   105 C    0.982
   114   1 H    0.996 --   106 C    0.983
   115   1 H    0.997 --   106 C    0.982
   116   1 H    0.996 --   106 C    0.982
   117   1 H    0.996 --   107 C    0.983
   118   1 H    0.996 --   107 C    0.982
   119   1 H    0.998 --   107 C    0.984
 ---------------------------------------------------------------------------

Topologies differ in total number of bonds
Writing topology from bond orders to xtbtopo.mol

molecular dipole:
                 x           y           z       tot (Debye)
 q only:        0.244       0.146      -0.403
   full:       -0.857       0.371      -0.727       3.008
molecular quadrupole (traceless):
                xx          xy          yy          xz          yz          zz
 q only:       -0.866      -5.570     -15.604      21.077      -2.843      16.470
  q+dip:        2.749      -4.227     -17.990      20.506       1.329      15.242
   full:       -1.152      -3.573     -14.305      18.843      -0.940      15.457


           -------------------------------------------------
          | TOTAL ENERGY             -172.752588984559 Eh   |
          | GRADIENT NORM               0.034668639747 Eh/α |
          | HOMO-LUMO GAP               0.903094347734 eV   |
           -------------------------------------------------

------------------------------------------------------------------------
 * finished run on 2022/01/14 at 14:30:43.477     
------------------------------------------------------------------------
 total:
 * wall-time:     0 d,  0 h,  0 min,  0.163 sec
 *  cpu-time:     0 d,  0 h,  0 min,  0.952 sec
 * ratio c/w:     5.826 speedup
 SCF:
 * wall-time:     0 d,  0 h,  0 min,  0.127 sec
 *  cpu-time:     0 d,  0 h,  0 min,  0.755 sec
 * ratio c/w:     5.952 speedup

