119
 energy: -172.737520218583 gnorm: 0.094791014356 xtb: 6.4.1 (1a32961)
N        -0.96510000000001   -2.11529999999986   -0.24089999999999
C        -2.24699999999993   -1.69840000000004   -0.36220000000004
C        -3.14040000000011   -2.36819999999987   -1.21199999999997
C        -2.70220000000003   -3.47560000000003   -1.93050000000000
C        -1.37780000000000   -3.89879999999996   -1.78759999999995
C        -0.54289999999999   -3.18669999999997   -0.93510000000001
H         0.49810000000000   -3.45630000000001   -0.78939999999998
H        -0.99570000000000   -4.76030000000001   -2.32769999999997
H        -4.16500000000002   -2.02890000000001   -1.31830000000001
C        -2.62130000000006   -0.50949999999999    0.44099999999999
N        -1.62600000000000    0.07330000000004    1.16019999999997
C        -1.89680000000000    1.15240000000003    1.91690000000003
C        -3.17230000000002    1.70330000000001    1.99650000000015
C        -4.20510000000004    1.11739999999992    1.26270000000002
C        -3.92609999999995    0.00250000000004    0.47820000000005
H        -4.71960000000001   -0.46420000000004   -0.09519999999996
H        -3.34629999999999    2.57510000000000    2.62070000000005
H        -1.04449999999999    1.57420000000000    2.43690000000002
Ir        0.42150000000001   -0.81650000000000    0.91330000000002
H         0.87260000000000   -2.23030000000000    1.54050000000000
B         0.50669999999999    0.41560000000000   -0.81540000000002
O         0.19500000000001   -0.04699999999995   -2.09149999999997
C         0.00649999999990    1.10040000000019   -2.95429999999992
C         0.49019999999984    0.74740000000002   -4.35779999999997
H         1.51609999999993    0.37380000000000   -4.33700000000000
H         0.44730000000001    1.62239999999998   -5.01670000000001
H        -0.14740000000000   -0.03389999999993   -4.78430000000001
C        -1.50120000000012    1.39560000000002   -2.96670000000000
H        -1.75370000000000    2.21460000000001   -3.64850000000000
H        -2.03199999999999    0.49450000000000   -3.28930000000002
H        -1.85170000000001    1.65210000000000   -1.96220000000000
C         0.84230000000000    2.20670000000006   -2.22040000000000
O         0.75200000000001    1.78259999999999   -0.83689999999998
C         2.32929999999999    2.18620000000009   -2.59899999999995
H         2.74130000000001    1.18500000000006   -2.45750000000001
H         2.48869999999999    2.51300000000002   -3.63179999999998
H         2.87199999999999    2.86270000000002   -1.93199999999995
C         0.28440000000001    3.62290000000000   -2.33659999999996
H        -0.72650000000002    3.69039999999999   -1.92910000000000
H         0.92130000000001    4.31480000000001   -1.77609999999997
H         0.26430000000001    3.94809999999999   -3.38320000000003
B         1.56300000000000    0.60960000000001    1.84840000000001
O         2.92780000000000    0.55229999999999    2.15020000000000
C         3.36330000000000    1.88660000000000    2.50260000000000
C         4.53140000000001    1.78590000000001    3.47740000000001
H         4.27910000000000    1.16090000000000    4.33689999999999
H         5.39390000000000    1.33790000000000    2.97340000000000
H         4.82390000000000    2.77869999999999    3.83819999999999
C         3.79700000000001    2.56850000000000    1.19670000000001
H         4.20020000000000    3.57089999999999    1.37680000000000
H         4.56739999999999    1.95559999999999    0.72110000000001
H         2.95240000000000    2.63259999999999    0.50540000000000
C         2.05040000000000    2.50089999999999    3.09320000000010
O         1.03750000000002    1.81619999999999    2.31909999999998
C         1.89100000000000    4.00450000000001    2.88650000000000
H         1.87290000000000    4.25440000000000    1.82409999999999
H         0.94940000000000    4.34260000000000    3.33169999999997
H         2.71079999999999    4.55150000000000    3.36629999999999
C         1.82470000000001    2.13200000000000    4.56520000000001
H         1.92609999999999    1.05330000000000    4.71320000000001
H         2.52609999999999    2.65280000000000    5.22539999999999
H         0.80630000000000    2.41580000000000    4.84900000000000
B         2.27819999999999   -1.33090000000001    0.17410000000000
O         2.89460000000000   -2.57740000000001    0.38450000000002
C         4.26930000000000   -2.48200000000000   -0.07210000000001
C         5.10899999999993   -2.05379999999997    1.14009999999999
H         4.76350000000001   -1.08740000000001    1.51750000000000
H         4.98049999999999   -2.79470000000001    1.93590000000001
H         6.17420000000002   -1.99290000000001    0.89300000000000
C         4.71950000000001   -3.84660000000000   -0.58470000000015
H         4.75280000000001   -4.56129999999998    0.24419999999998
H         5.72329999999997   -3.78370000000000   -1.02010000000001
H         4.03500000000004   -4.23600000000002   -1.34169999999998
C         4.16440000000009   -1.36219999999998   -1.16299999999999
O         3.08520000000001   -0.55030000000001   -0.65400000000000
C         5.40719999999989   -0.48869999999998   -1.31549999999998
H         6.27319999999998   -1.09010000000001   -1.61529999999999
H         5.23300000000000    0.26930000000000   -2.08589999999999
H         5.64270000000003    0.02649999999999   -0.38240000000002
C         3.71799999999989   -1.89830000000000   -2.53110000000000
H         2.82530000000004   -2.52160000000000   -2.42739999999999
H         3.46090000000003   -1.05249999999999   -3.17550000000000
H         4.50570000000002   -2.48290000000000   -3.01789999999998
H        -3.38499999999999   -4.00130000000000   -2.59309999999999
H        -5.21400000000000    1.52079999999998    1.29959999999997
C         0.23590000000004   -1.68140000000001    2.96030000000001
C        -1.03550672313648   -2.10763768398624    3.39458927350127
C         1.28946528482982   -1.69029216078016    3.87668504314660
C        -1.28872072592324   -2.48937330293701    4.70287029304315
H        -1.85076414807699   -2.15771543985253    2.68593436182375
C         1.03856653583700   -2.09630276626353    5.18092205837569
H         2.28947218920943   -1.42507423516547    3.56898809036324
C        -0.22865650139901   -2.50494017073700    5.61340453886638
H        -2.27552384626994   -2.81071119147887    5.00525020524339
O         1.93719157174658   -2.24121133523188    6.16538639955460
C        -0.04824109032678   -2.92591646385368    6.94270219047505
C         1.28861364592521   -2.76052625344974    7.23532715121497
H        -0.78412519121446   -3.32178305148982    7.61812875222706
B         2.10163143848732   -3.17634814719296    8.48888554928414
O         3.47720070158746   -2.97375950021810    8.65215378303523
O         1.56627134660733   -3.87197839604534    9.58216278457979
C         3.91376746094478   -3.70342378136530    9.78809656315255
C         2.57591722079791   -4.00678444044610   10.57241871895918
C         4.59996594137724   -4.98105128184354    9.26484833309119
C         4.94251059590509   -2.87257538543028   10.56451905843181
C         2.50048890513685   -5.40860314777924   11.19034549092602
C         2.27791665515298   -2.96187666997378   11.66618086699246
H         5.40886268939109   -4.68596400920124    8.58628258935361
H         3.88765544855409   -5.58857401203975    8.69537649568274
H         5.01874076845557   -5.57007936886766   10.08750649210259
H         5.83106490674212   -2.73677036832758    9.93723932879715
H         5.23130060276419   -3.39297741427566   11.48318065940043
H         4.54776700548855   -1.88205148713860   10.81094514398942
H         3.32927102858961   -5.55603932848877   11.89018554928839
H         2.52977677767622   -6.18317878255104   10.41783993829377
H         1.55347313419227   -5.50659868712098   11.73337644102069
H         2.98835071431126   -3.04549238513757   12.49505950157812
H         1.26346066302442   -3.13539877566605   12.04380973275366
H         2.31371211257815   -1.95148046829171   11.24400083643607
119
 energy: -172.746298711970 gnorm: 0.053648317389 xtb: 6.4.1 (1a32961)
N        -0.96281758481732   -2.10196204262544   -0.24900730020748
C        -2.24078413602571   -1.69099967462744   -0.36323548791466
C        -3.13475043890304   -2.36255257440301   -1.20639305522230
C        -2.70396934287579   -3.46426695201648   -1.92185928213674
C        -1.38404496762541   -3.88327236272192   -1.78195220721879
C        -0.55450756259473   -3.16921688373828   -0.93900544466662
H         0.47938480261841   -3.44885360097746   -0.78939932404465
H        -1.00731827283941   -4.74327061547034   -2.31725630145453
H        -4.15518514281762   -2.02707120970675   -1.31136405810907
C        -2.61233638628456   -0.51284853999838    0.43605787954945
N        -1.62001580701682    0.06761126397028    1.14765546215084
C        -1.89794153981888    1.13925266644769    1.89405971774196
C        -3.16498568576536    1.68879791813916    1.98204302364144
C        -4.19639772186782    1.10469850590873    1.25530236176636
C        -3.91524267994253   -0.00226508576402    0.47528236884762
H        -4.70680186603758   -0.46545918956459   -0.09366204956937
H        -3.33987315307723    2.55239220033274    2.60845353182824
H        -1.05459751031751    1.55735597168659    2.42285625285031
Ir        0.42150000000001   -0.81650000000000    0.91330000000002
H         0.87260000000000   -2.23030000000000    1.54050000000000
B         0.49098956446677    0.42357113029566   -0.79129064604443
O         0.17681160303562   -0.03550485788331   -2.06416167916814
C         0.01116948981066    1.09631058881006   -2.94482613125545
C         0.49033125900770    0.74656040018024   -4.34982293879739
H         1.50939611103882    0.37012780358628   -4.32818804623084
H         0.44549935725590    1.62165341795029   -4.99879335471180
H        -0.14810138373539   -0.02975416372200   -4.77011848497306
C        -1.49331812397821    1.39818255570696   -2.97038883567935
H        -1.73284258257069    2.21111736481484   -3.65421647906140
H        -2.02312108594810    0.50085241967709   -3.29007031678760
H        -1.83970628380138    1.65269021334769   -1.96858061063067
C         0.83325962345093    2.20618528024290   -2.21359260199698
O         0.75583097048337    1.77936478164203   -0.83643000148287
C         2.31618968979854    2.18975288662817   -2.60035522245862
H         2.72049535205407    1.19066026669806   -2.45032465063175
H         2.46880152965540    2.51139503034807   -3.62991344305266
H         2.85821225578958    2.86415518702252   -1.93839703220135
C         0.28158365635383    3.62239703466379   -2.34037630745959
H        -0.72187295937709    3.69092560138414   -1.92841832487997
H         0.92069559528491    4.30605749376994   -1.78308446781874
H         0.26414218520101    3.93557085811079   -3.38439874565733
B         1.56460658069085    0.61701749766029    1.85522955445593
O         2.92510412491223    0.56561374942338    2.13539939199718
C         3.36296554179316    1.88676628475064    2.50884900097234
C         4.53241811965166    1.78891020248428    3.48019514657916
H         4.28018399163236    1.16054788634067    4.33052816558279
H         5.38767153220057    1.34439211412480    2.97286874099099
H         4.81541140845230    2.77919038781553    3.83634312897203
C         3.79881090113299    2.57361429687840    1.20981588820735
H         4.20035165702903    3.56931991081533    1.39338498754789
H         4.56291974626468    1.96180981898882    0.73321672392378
H         2.95091689245836    2.62590654312928    0.52805699688794
C         2.05254547329841    2.50459672593697    3.08907995698172
O         1.04054425588805    1.80926150103616    2.33449977269001
C         1.89356367906607    4.00689285364593    2.88819454792931
H         1.86889714187713    4.25030555564964    1.82980476794633
H         0.95584239800741    4.33618193256726    3.33416433987747
H         2.71367404282329    4.54341032144343    3.36480096401358
C         1.83054650756850    2.14011328771366    4.56146905586118
H         1.93263163170454    1.06448614525344    4.70126869965414
H         2.53110912331874    2.66138083905318    5.21146517121751
H         0.81568864921046    2.41827087618529    4.84540533114170
B         2.27819999999999   -1.33090000000001    0.17410000000000
O         2.90066345010867   -2.56190021264185    0.39078636108528
C         4.26555636258295   -2.48364946933297   -0.07657333451244
C         5.10965375991957   -2.05856692521672    1.12974770380324
H         4.75393808540111   -1.09828566492817    1.50089835512617
H         4.97791298111641   -2.79319170631119    1.92344471729217
H         6.16765817037620   -1.99855036946613    0.87872622013532
C         4.72016686020617   -3.84606384105297   -0.58628869785502
H         4.74948284504126   -4.55043743049358    0.24380189259733
H         5.71811408727757   -3.77496489356061   -1.01822816015360
H         4.03462072411192   -4.23342125596629   -1.33525208251238
C         4.16649339657901   -1.36105847601443   -1.15749298690160
O         3.07453285943378   -0.56396466987788   -0.66182032463047
C         5.40970614150340   -0.49250417087192   -1.31516189854736
H         6.26618675345180   -1.09789927907400   -1.61086809459534
H         5.23123265397536    0.25879607003758   -2.08329107274510
H         5.63732805101993    0.02190088737698   -0.38599117821563
C         3.72871284276939   -1.90023210186484   -2.52559968908765
H         2.83647952738840   -2.51540904894666   -2.41682220768718
H         3.47133202731786   -1.05858534576946   -3.16728180280152
H         4.51824478605855   -2.47764954675236   -3.00379144468994
H        -3.38293439394360   -3.98917217397511   -2.58023719577922
H        -5.20033738178962    1.50630484197740    1.29544163778211
C         0.23590000000004   -1.68140000000001    2.96030000000002
C        -1.03445127947948   -2.10754759092916    3.39713121237031
C         1.28966486211891   -1.68894219093057    3.87233522310459
C        -1.28881477566845   -2.48767904306288    4.69911499685620
H        -1.84943005520818   -2.15739293683017    2.68845361590659
C         1.04355479037283   -2.09336613139018    5.17618202959625
H         2.28779227179893   -1.42385561839607    3.56330505316984
C        -0.22997961892040   -2.50431729350602    5.61245683229044
H        -2.27541189912081   -2.80848360558109    5.00066757172716
O         1.94613834093195   -2.24029057657527    6.16702445256807
C        -0.04317395232877   -2.92778326353573    6.95169850565737
C         1.29056516870001   -2.76409701264601    7.24346580444263
H        -0.77756645852796   -3.32213841978214    7.62536902014798
B         2.10334935725323   -3.17899739774405    8.49407865438546
O         3.46086482935253   -2.97582387149117    8.65091669308776
O         1.57136310701949   -3.86459862516913    9.57165259733529
C         3.91180240477308   -3.70445943505967    9.78980480824136
C         2.57815076093345   -4.00526608427119   10.57331996067660
C         4.59727369298439   -4.97758739720488    9.26627610684555
C         4.93876285582565   -2.87339744362710   10.56149399389696
C         2.50000050945819   -5.40414632956757   11.18824390890273
C         2.27919354690120   -2.96343286798868   11.66351605889755
H         5.40064794308884   -4.68470483036649    8.59102701293616
H         3.89033341285764   -5.58305053399312    8.70062124751225
H         5.01499879860900   -5.56299593791028   10.08181993868836
H         5.82169136202465   -2.73770636279371    9.93846548957700
H         5.22811117813574   -3.38892879147005   11.47471830234186
H         4.54770477437423   -1.88929672651214   10.80723521525703
H         3.32237107710149   -5.55289254768344   11.88460410222790
H         2.52924801279778   -6.17428785083155   10.42151371688868
H         1.55902022216831   -5.50234153167330   11.72747467413135
H         2.98304764764453   -3.04580119094628   12.48796141136615
H         1.27077152414642   -3.13475273271731   12.03860541047622
H         2.31509982340730   -1.95850460643899   11.24548072108997
119
 energy: -172.748524756029 gnorm: 0.037138425826 xtb: 6.4.1 (1a32961)
N        -0.95673020181061   -2.09485590672208   -0.25561386280940
C        -2.23235856659126   -1.68480651431264   -0.36587692463136
C        -3.13108562667930   -2.35525613422619   -1.20392903500190
C        -2.70826042281832   -3.45462088645658   -1.91949213923403
C        -1.38888360985028   -3.87418155540022   -1.78238913885943
C        -0.56005688577719   -3.16039759751516   -0.94372209366737
H         0.47215217565000   -3.44440711227075   -0.80048681034160
H        -1.01758667314276   -4.73380287044781   -2.31557945664790
H        -4.15011831729049   -2.02076506888140   -1.30171387803682
C        -2.60039682982346   -0.51491995545382    0.42896169644543
N        -1.61087429164573    0.06105010286587    1.14153962769768
C        -1.89464947928876    1.12727271531463    1.88262973233620
C        -3.15729382045841    1.67804915104068    1.97270467879778
C        -4.18909660855682    1.09450009678614    1.24644479681912
C        -3.90388074702859   -0.00650170216445    0.46706283429004
H        -4.69291051527996   -0.47129540550518   -0.09958048368481
H        -3.33275593009355    2.53754289694572    2.59894849442665
H        -1.05639222137964    1.55042881118921    2.41217144203577
Ir        0.42150000000001   -0.81650000000000    0.91330000000002
H         0.87260000000000   -2.23030000000000    1.54050000000000
B         0.49438084067211    0.43304423006941   -0.76982096040817
O         0.15782306556333   -0.02680238965766   -2.03536844549503
C         0.00779804859353    1.09239475122339   -2.92631270141824
C         0.49188514206673    0.73755081133245   -4.32874557223095
H         1.50728302684467    0.35767798461254   -4.30793786503577
H         0.44702965182055    1.61576352600997   -4.96790367274359
H        -0.15044548031693   -0.03270261782489   -4.74754134510362
C        -1.49484448075408    1.40391635992492   -2.97150670319719
H        -1.71592460860008    2.21304638336834   -3.66105997736401
H        -2.02373115900862    0.50879941067768   -3.29196430988942
H        -1.84330994969840    1.66172055791194   -1.97361320843837
C         0.82652115524552    2.20480386492745   -2.20186581196377
O         0.76003542731806    1.78266658035681   -0.82945668687025
C         2.30696806346623    2.19314260636560   -2.59849640536802
H         2.70787245027926    1.19553156782825   -2.44103607428778
H         2.44681921412004    2.50726649237877   -3.62895506980813
H         2.84860637357405    2.87203728613582   -1.94451286538611
C         0.27277735360869    3.61970167447829   -2.33842786453608
H        -0.72670205337540    3.69414710784610   -1.92348611668697
H         0.91697441072746    4.30180037815923   -1.79025462838349
H         0.25664959781597    3.91611514506580   -3.38387768510906
B         1.56726465825973    0.62383721234121    1.86062620756933
O         2.92338516645993    0.57650081205443    2.12253506490814
C         3.36136763244427    1.88765027834004    2.51105115247088
C         4.52879356224968    1.78883131278313    3.48552320725177
H         4.27944666597072    1.15566193653544    4.33024071028554
H         5.38198788222947    1.35159840039750    2.97413661004506
H         4.80162255251204    2.77869666000738    3.84017652754002
C         3.80241418774657    2.58532521180808    1.21981458712350
H         4.20061820593425    3.57706364293343    1.41130220194852
H         4.56560015483879    1.97573443567958    0.74362093396082
H         2.95294804914176    2.63150142070573    0.54267703025681
C         2.05256879172996    2.50414043280222    3.08971883956848
O         1.04240045319306    1.80217185006514    2.34819556762832
C         1.89525047327684    4.00638451094067    2.88673843181385
H         1.86342865900252    4.24785813110180    1.83031026101396
H         0.96223227898457    4.33182505124669    3.33842729146539
H         2.71876254061695    4.53411046895649    3.35919500450881
C         1.83983391652592    2.14862564954933    4.56641203432471
H         1.94474585684962    1.07465465527537    4.70199261819178
H         2.54228347436080    2.67415653829475    5.20544347398255
H         0.82660698817654    2.42349803553666    4.85050187449115
B         2.27819999999999   -1.33090000000000    0.17410000000001
O         2.90257263671513   -2.54970129198288    0.40058116050186
C         4.25824545857902   -2.48232281056793   -0.07546472093580
C         5.11277913517544   -2.06059169443715    1.12416071955617
H         4.75213749476209   -1.10288212462588    1.49152803339548
H         4.98101283319235   -2.79313965786197    1.91624635539854
H         6.16525858534452   -2.00209689078191    0.86469283326115
C         4.71193744151133   -3.84475349885674   -0.58717431432733
H         4.74320569943731   -4.54214110846723    0.24489224163089
H         5.70605279487089   -3.76466590609796   -1.01758038440549
H         4.02649500680191   -4.23382038130549   -1.33176869751963
C         4.16233952519161   -1.36200072838866   -1.15488093155755
O         3.06300521424869   -0.57384409183810   -0.67006172818620
C         5.40712725475614   -0.49536360101100   -1.30864656924740
H         6.25577747357976   -1.10827473494581   -1.59862972168368
H         5.22996557823954    0.24904431402553   -2.07980099778942
H         5.63125312672133    0.02130590587533   -0.38263011952489
C         3.73931613552497   -1.90539268279802   -2.52651813395975
H         2.84788950562429   -2.51734193252044   -2.41617831675119
H         3.48565561629183   -1.06554141717234   -3.16850802624151
H         4.53494295998711   -2.47877334511513   -2.99169893887639
H        -3.38847460709049   -3.97983360686513   -2.57174080714868
H        -5.19160058118375    1.49196377519489    1.29008359116307
C         0.23590000000004   -1.68140000000001    2.96030000000003
C        -1.03340987447534   -2.10672427544570    3.39937815490380
C         1.28980369689965   -1.68846435225160    3.87035328860206
C        -1.28681913484610   -2.48563960938590    4.69896754691274
H        -1.84863771044534   -2.15645558768501    2.69047816843924
C         1.04740016486542   -2.09120050594822    5.17383870339090
H         2.28717262876916   -1.42406392864109    3.55952904965358
C        -0.22919940176430   -2.50247657669744    5.61314835379711
H        -2.27331545347616   -2.80590179854314    5.00137712325742
O         1.95427210042894   -2.23936527619227    6.16873583715370
C        -0.03728192493220   -2.92746932174052    6.95823796162807
C         1.29203010255295   -2.76619009960364    7.25021129858373
H        -0.77210757837958   -3.32096997971397    7.62989803856700
B         2.10731984045262   -3.18147430330966    8.50075191805495
O         3.45021369725208   -2.97748337216727    8.64648328917433
O         1.57204457566477   -3.85644062865597    9.56380347076086
C         3.91007754498332   -3.70416897838739    9.79071489202196
C         2.57911521063664   -4.00334627301628   10.57360305669206
C         4.59409336667542   -4.97402348848254    9.26571101195871
C         4.93531043328418   -2.86996689611120   10.55628058717497
C         2.49592786859279   -5.40090858202472   11.18436701629048
C         2.27856837192054   -2.96299004570028   11.66033179025172
H         5.39430033957829   -4.67965771743669    8.59195273165550
H         3.88813676956462   -5.57815453342752    8.70254728482090
H         5.01108970942782   -5.55580055563601   10.07999703546818
H         5.81475162122728   -2.73628618126783    9.93311711251525
H         5.22357357430648   -3.38473272540700   11.46711066475306
H         4.54368667302102   -1.88906610524852   10.80055767531938
H         3.31646151197522   -5.54881555673709   11.87880849340984
H         2.52539090836518   -6.16748606275955   10.41830016559278
H         1.55705511968808   -5.49658089290564   11.72167367065793
H         2.98062569128423   -3.04721596889142   12.48197673440729
H         1.27237718430848   -3.13485505654289   12.03286189342593
H         2.31583944134791   -1.96071884635904   11.24300990437819
119
 energy: -172.749054691281 gnorm: 0.035999409798 xtb: 6.4.1 (1a32961)
N        -0.94951680025157   -2.09267537991713   -0.26452996083222
C        -2.22588568635966   -1.68239841527089   -0.37048130946051
C        -3.12932571404981   -2.35264578008455   -1.20456615850198
C        -2.71156041385007   -3.45274732242824   -1.92104705847924
C        -1.39065353587007   -3.87279608398255   -1.78910484886200
C        -0.55770737425630   -3.15821597099559   -0.95463572491559
H         0.47433732094834   -3.44599973647389   -0.81530582578715
H        -1.02311829052049   -4.73357042730291   -2.32238832983297
H        -4.14826508054214   -2.01620693745080   -1.29710471944924
C        -2.59217995973153   -0.51512875670649    0.42403000795865
N        -1.60293996879451    0.06085335558598    1.13778180294021
C        -1.88915860947378    1.12689032857251    1.87773200320325
C        -3.15255818185411    1.67575212432780    1.96891313304390
C        -4.18482967165146    1.09057696641357    1.24226850973735
C        -3.89683949275981   -0.00823102598427    0.46172224221179
H        -4.68365092176804   -0.47385654910914   -0.10731763017718
H        -3.32931078224885    2.53345846958062    2.59646058276486
H        -1.05361257423468    1.55108784717382    2.41133476867908
Ir        0.42150000000001   -0.81650000000000    0.91330000000002
H         0.87260000000000   -2.23030000000000    1.54050000000000
B         0.48063868730609    0.44545713669259   -0.75298843382531
O         0.13869773927813   -0.02027512544435   -2.01486613647698
C         0.00047743684145    1.09170430055382   -2.91194805504504
C         0.49168546794953    0.72702132514966   -4.31000333862908
H         1.50492342449612    0.34173481341783   -4.28278885415210
H         0.45385746833507    1.60474493994972   -4.95006496295819
H        -0.15332211291251   -0.04098673084339   -4.72881915119232
C        -1.50086308997556    1.41091990308978   -2.97218068608524
H        -1.70840249514371    2.21820725881447   -3.66789586217893
H        -2.03079546914645    0.51705909759377   -3.29417124551153
H        -1.85717823266944    1.67512431046355   -1.97876673922766
C         0.81994276076921    2.20630645909341   -2.19117981572802
O         0.76007611685022    1.79079396871544   -0.81909698887513
C         2.29907223506884    2.19539860681665   -2.59533317416307
H         2.70192809427072    1.19950988291916   -2.43192859355263
H         2.43120084944336    2.50203727161315   -3.62890643639040
H         2.84178039176265    2.88106238689178   -1.94932148012753
C         0.26532418784743    3.62089822267976   -2.33513535548094
H        -0.73250731782234    3.69904168870609   -1.91694502646410
H         0.91270818875329    4.30712846057629   -1.79576250642944
H         0.24533692200417    3.90619756144573   -3.38361235819726
B         1.56787646293480    0.62515079787325    1.86541037539816
O         2.92463577059078    0.58173753831843    2.11321416015658
C         3.36109142134155    1.88874337780343    2.51212799800779
C         4.52735745448208    1.78699250233493    3.48891426597852
H         4.27897785256873    1.14799576853321    4.32956851431141
H         5.38322861657650    1.35655647729881    2.97607125482252
H         4.79394065745154    2.77654099217209    3.84915162714351
C         3.80583349826385    2.59663809841009    1.22683142915277
H         4.20054347741738    3.58777852958460    1.42726051465891
H         4.57252026922578    1.99178958671937    0.75007782010142
H         2.95803609516840    2.64452609149062    0.54792928839357
C         2.05248040431027    2.50362854558201    3.09320651850086
O         1.04111239956834    1.79666487655913    2.36087197478904
C         1.89351525593039    4.00600769082000    2.88674068497511
H         1.85463216462086    4.24539678396886    1.82996721832120
H         0.96406379452551    4.33292727529826    3.34481651135959
H         2.72163033590393    4.53243909708094    3.35248894094996
C         1.84839534713817    2.15537110845845    4.57360029737110
H         1.95688600528233    1.08231189781830    4.71303897438893
H         2.55375435393436    2.68658398309007    5.20445982688160
H         0.83603929908640    2.42949144693170    4.86120810277930
B         2.27819999999999   -1.33089999999999    0.17410000000001
O         2.90348142428447   -2.54478473123955    0.40984321768999
C         4.25426987218933   -2.48229008443867   -0.07326245071169
C         5.11678123117064   -2.06132954279426    1.12175623033525
H         4.75795474999629   -1.10325247084463    1.48987726138512
H         4.98792124580648   -2.79389689077752    1.91424107889638
H         6.16730612077026   -2.00419746725457    0.85534654125976
C         4.70411479422623   -3.84666136595996   -0.58538074236320
H         4.73825535130609   -4.54243218164858    0.24791309139538
H         5.69652173301501   -3.76497371382586   -1.01910189171941
H         4.01601156165473   -4.23641363876946   -1.32721133408031
C         4.15959278317052   -1.36366954681131   -1.15465273927849
O         3.05573688807377   -0.57851529229907   -0.67858294130753
C         5.40465683195237   -0.49583941258290   -1.30374391275417
H         6.25334560500061   -1.11212723461655   -1.58646754779637
H         5.23168754747231    0.24514649411509   -2.07915737226983
H         5.62408159863712    0.02405167002177   -0.37840043709415
C         3.74823835136128   -1.91089902237697   -2.52906552817060
H         2.85712492147090   -2.52394966126198   -2.42382253540362
H         3.49962766865090   -1.07246936158726   -3.17490620647840
H         4.54977402285049   -2.48370888422768   -2.98433160228738
H        -3.39508186711577   -3.97754135733564   -2.57005742086239
H        -5.18814586016847    1.48546192270633    1.28676881811376
C         0.23590000000003   -1.68140000000000    2.96030000000004