15
 energy: -26.178510713108 gnorm: 0.070920999618 xtb: 6.4.1 (1a32961)
C         0.97895000000000   -1.41835000000000   -0.01693000000000
C        -0.18969000000000   -0.68699000000000   -0.00956000000000
O        -1.44885000000000   -1.19976000000000   -0.00397000000000
C        -2.23046000000000    0.01009000000000    0.08026000000000
O        -1.43846000000000    1.21271000000000    0.00041000000000
C        -0.18318000000000    0.68796000000000   -0.00314000000000
C         0.99104000000000    1.40874000000000    0.00254000000000
C         2.19258000000000    0.69268000000000    0.00624000000000
C         2.18578000000000   -0.71338000000000   -0.00545000000000
H         0.95931000000000   -2.50198000000000   -0.02325000000000
H        -2.76790000000000    0.01173000000000    1.03643000000000
H        -2.96416000000000    0.01358000000000   -0.73403000000000
H         0.98262000000000    2.49284000000000    0.01130000000000
H         3.13962000000000    1.22684000000000    0.02065000000000
H         3.12831000000000   -1.25667000000000   -0.00570000000000
15
 energy: -26.184339191716 gnorm: 0.029165971380 xtb: 6.4.1 (1a32961)
C         0.99685046358119   -1.41849117821186   -0.01371814877371
C        -0.17227791208343   -0.68940250681933   -0.00508476166164
O        -1.45745088462414   -1.16211809042200   -0.00337006641783
C        -2.27197128658769    0.01015798935559    0.08056927348909
O        -1.44687010503656    1.17505570886169    0.00497031949183
C        -0.16557664140547    0.69030857024604    0.00165088275676
C         1.00969195881290    1.40881506943387    0.00482016271610
C         2.19906320532370    0.68528326435295    0.00324993542800
C         2.19237930604778   -0.70589162409692   -0.00715742203055
H         0.97649723744266   -2.49681391454583   -0.02270923531195
H        -2.80302110124351    0.00949512039586    1.04331956978749
H        -2.99132270000635    0.01567345863663   -0.74794384527260
H         1.00005040212951    2.48738603476062    0.01130399781933
H         3.14044750154538    1.21398469273331    0.01365782475153
H         3.12902055610402   -1.24340259468063   -0.00775848677185
15
 energy: -26.185061506495 gnorm: 0.009483946905 xtb: 6.4.1 (1a32961)
C         1.00239304999601   -1.42254986020186   -0.00990292584038
C        -0.16541221699987   -0.69434601905022    0.00136372730180
O        -1.46327552722834   -1.14751431886302    0.00095045103787
C        -2.27983602607922    0.01011330529884    0.07989984676503
O        -1.45253944891953    1.16058371523546    0.01328433125182
C        -0.15870263426603    0.69527312790372    0.00916035180858
C         1.01559670165187    1.41284743824272    0.00822122189862
C         2.19937794996723    0.68207072884980    0.00068060937939
C         2.19282457398995   -0.70271762156474   -0.00829529450417
H         0.98318536282207   -2.49890083287336   -0.02006111560738
H        -2.82329206114437    0.00747108941835    1.03733906613621
H        -2.98837534286368    0.01763364172110   -0.75822178665180
H         1.00654455431881    2.48935699898378    0.01300494460930
H         3.13926779814864    1.20944494566286    0.00276763693917
H         3.12775326660648   -1.23872633876342   -0.01439106452407
15
 energy: -26.185138610284 gnorm: 0.003907427869 xtb: 6.4.1 (1a32961)
C         1.00206918840810   -1.42408122641260   -0.00780325604491
C        -0.16454618314869   -0.69630856778447    0.00620567340413
O        -1.46450813396579   -1.14627423933448    0.00668782758937
C        -2.27731702369922    0.01005659109970    0.07874513090598
O        -1.45370430266496    1.15939377216517    0.02096616864668
C        -0.15789605814371    0.69724285305861    0.01459614414319
C         1.01532944975133    1.41436467283658    0.01006143414163
C         2.19931022977091    0.68146524113312   -0.00199139251237
C         2.19280457952565   -0.70213148738880   -0.01056062525911
H         0.98407501027535   -2.50039245181453   -0.01738448029567
H        -2.83399905225201    0.00663002476824    1.02993991432015
H        -2.98058746282741    0.01855004605724   -0.76525962364207
H         1.00724479978018    2.49081841115974    0.01497065202424
H         3.13937128902961    1.20948435631018   -0.00386294041934
H         3.12786367016067   -1.23877799585371   -0.01951062700190
15
 energy: -26.185172509759 gnorm: 0.001742002760 xtb: 6.4.1 (1a32961)
C         1.00108982349150   -1.42463012965820   -0.00625746328779
C        -0.16431126594642   -0.69740987062905    0.01137793814945
O        -1.46462006617400   -1.14637831688986    0.01562988710957
C        -2.27454885341372    0.00999839373650    0.07790075818081
O        -1.45376137845055    1.15946026026726    0.03107798116871
C        -0.15773474257608    0.69832305392327    0.02011289264083
C         1.01435918285279    1.41488257917663    0.01128061679104
C         2.19950285717910    0.68104164521276   -0.00464201386297
C         2.19303229112245   -0.70171705519759   -0.01290790103243
H         0.98469199573394   -2.50110793910842   -0.01525994311369
H        -2.84701377295188    0.00625195775766    1.02112058447952
H        -2.97035634493192    0.01911227486192   -0.77425363830996
H         1.00769913173195    2.49149181886054    0.01666585185427
H         3.13947487582204    1.21017391471388   -0.01050441877264
H         3.12800626651083   -1.23945258702729   -0.02554113199472
15
 energy: -26.185191066255 gnorm: 0.002984307573 xtb: 6.4.1 (1a32961)
C         1.00033042392901   -1.42440669644508   -0.00514800361716
C        -0.16431702819371   -0.69766315372836    0.01683113140176
O        -1.46404373048948   -1.14671901733904    0.02801565540241
C        -2.27347148114334    0.00995906223751    0.07763824491879
O        -1.45315556017670    1.15964234255873    0.04356036764174
C        -0.15780091684012    0.69852294697867    0.02563223910713
C         1.01357876980501    1.41461418353205    0.01232303809911
C         2.19988629291798    0.68077016049275   -0.00787989281856
C         2.19343324281568   -0.70142493058447   -0.01618103668022
H         0.98560974435882   -2.50103118099207   -0.01365974390531
H        -2.86259853635218    0.00644256303772    1.01108588785415
H        -2.95761383333649    0.01919126407986   -0.78565180138707
H         1.00853608896468    2.49136057883456    0.01821926485251
H         3.13928413032801    1.21108755977127   -0.01695406276144
H         3.12785239341284   -1.24030568243408   -0.03203128810782
15
 energy: -26.185203961417 gnorm: 0.002364061500 xtb: 6.4.1 (1a32961)
C         1.00031407495733   -1.42409133202602   -0.00458437488150
C        -0.16437542788039   -0.69742683585598    0.01982034321305
O        -1.46360945005557   -1.14687993789510    0.03655434123774
C        -2.27410873632210    0.00996727547951    0.07785998306693
O        -1.45271341386054    1.15967350885276    0.05160272885691
C        -0.15786568050610    0.69825981665743    0.02849353008502
C         1.01355481620550    1.41428104100232    0.01291833345390
C         2.20002410088098    0.68076895531098   -0.00967711994767
C         2.19356483208304   -0.70140140951797   -0.01805446233098
H         0.98618439551745   -2.50072119774146   -0.01294281849469
H        -2.87230206966275    0.00678464692302    1.00472982103964
H        -2.94889200814638    0.01895334697504   -0.79305150256058
H         1.00915876644586    2.49102717438322    0.01917617907349
H         3.13900702375749    1.21150486255296   -0.02081115015085
H         3.12756877658619   -1.24065991510074   -0.03623383166041
15
 energy: -26.185214818394 gnorm: 0.001243296398 xtb: 6.4.1 (1a32961)
C         1.00061442989452   -1.42381578590778   -0.00356260742420
C        -0.16437476533949   -0.69709641385848    0.02452398349775
O        -1.46311051483063   -1.14710726053055    0.04977508466940
C        -2.27533874347767    0.00999066678046    0.07820700798524
O        -1.45222644891909    1.15970789859600    0.06431554847136
C        -0.15786440531001    0.69788622467639    0.03307617625303
C         1.01384973973977    1.41399123100681    0.01406059629804
C         2.20005292873670    0.68088427248008   -0.01300724815182
C         2.19358377230021   -0.70147330002887   -0.02152026699971
H         0.98666436048689   -2.50040791428370   -0.01121161826021
H        -2.88745197262839    0.00715021480907    0.99446362269352
H        -2.93457990906387    0.01870497869164   -0.80463729612671
H         1.00974998236745    2.49068826868409    0.02110888252560
H         3.13869767862662    1.21176681096663   -0.02704430468755
H         3.12724386741699   -1.24082989208179   -0.04274756074374
15
 energy: -26.185216675799 gnorm: 0.000432616638 xtb: 6.4.1 (1a32961)
C         1.00092974337781   -1.42394417652392   -0.00257576022239
C        -0.16428922103066   -0.69704318292042    0.02635669378863
O        -1.46313648777648   -1.14712928605610    0.05345661089952
C        -2.27565007507865    0.01001093225175    0.07797925446320
O        -1.45226835525193    1.15967900896699    0.06803497669013
C        -0.15776255605657    0.69780235648727    0.03487445612855
C         1.01417191731740    1.41411770682266    0.01501670600577
C         2.19982915648903    0.68102176266034   -0.01388696833444
C         2.19335859527415   -0.70159852982714   -0.02234940257001
H         0.98616579915755   -2.50049522409079   -0.00992448908162
H        -2.89176933262278    0.00712703069621    0.99066192111510
H        -2.92945841188437    0.01873666447815   -0.80826509100150
H         1.00930644946164    2.49077184597484    0.02238403498550
H         3.13877247473911    1.21138753499845   -0.03013161988399
H         3.12731030388475   -1.24040444391829   -0.04583132298245
15
 energy: -26.185216952237 gnorm: 0.000153488268 xtb: 6.4.1 (1a32961)
C         1.00105538446344   -1.42408302221522   -0.00239392533114
C        -0.16419475600697   -0.69708910668020    0.02670017302275
O        -1.46321371690716   -1.14709524471311    0.05285309354443
C        -2.27548571179227    0.01001888886781    0.07778731402222
O        -1.45235024215869    1.15965607827653    0.06763312354256
C        -0.15765693745286    0.69783413893458    0.03527572511603
C         1.01429809931028    1.41426083000732    0.01517987692377
C         2.19976128397152    0.68107280003498   -0.01422799223189
C         2.19329390529272   -0.70164531242534   -0.02269494946776
H         0.98570153895075   -2.50063165832589   -0.00950708818963
H        -2.89141435429694    0.00702216558314    0.99071662332977
H        -2.92954190412514    0.01883551895847   -0.80814412113804
H         1.00882549776679    2.49091303476040    0.02268667832402
H         3.13894116373223    1.21103695778522   -0.03024385281494
H         3.12749074925231   -1.24006606884871   -0.04582067865215
