      -----------------------------------------------------------      
     |                   =====================                   |     
     |                           x T B                           |     
     |                   =====================                   |     
     |                         S. Grimme                         |     
     |          Mulliken Center for Theoretical Chemistry        |     
     |                    University of Bonn                     |     
      -----------------------------------------------------------      

   * xtb version 6.4.1 (1a32961) compiled by 'knkr256@seskscpg007.prim.scp' on 2021-10-19

   xtb is free software: you can redistribute it and/or modify it under
   the terms of the GNU Lesser General Public License as published by
   the Free Software Foundation, either version 3 of the License, or
   (at your option) any later version.
   
   xtb is distributed in the hope that it will be useful,
   but WITHOUT ANY WARRANTY; without even the implied warranty of
   MERCHANTABILITY or FITNESS FOR A PARTICULAR PURPOSE.  See the
   GNU Lesser General Public License for more details.
   
   Cite this work as:
   * C. Bannwarth, E. Caldeweyher, S. Ehlert, A. Hansen, P. Pracht,
     J. Seibert, S. Spicher, S. Grimme, WIREs Comput. Mol. Sci., 2020, 11,
     e01493. DOI: 10.1002/wcms.1493
   
   for GFN2-xTB:
   * C. Bannwarth, S. Ehlert and S. Grimme., J. Chem. Theory Comput., 2019,
     15, 1652-1671. DOI: 10.1021/acs.jctc.8b01176
   for GFN1-xTB:
   * S. Grimme, C. Bannwarth, P. Shushkov, J. Chem. Theory Comput., 2017,
     13, 1989-2009. DOI: 10.1021/acs.jctc.7b00118
   for GFN0-xTB:
   * P. Pracht, E. Caldeweyher, S. Ehlert, S. Grimme, ChemRxiv, 2019, preprint.
     DOI: 10.26434/chemrxiv.8326202.v1
   for GFN-FF:
   * S. Spicher and S. Grimme, Angew. Chem. Int. Ed., 2020, 59, 15665-15673.
     DOI: 10.1002/anie.202004239
   
   for ALPB and GBSA implicit solvation:
   * S. Ehlert, M. Stahn, S. Spicher, S. Grimme, J. Chem. Theory Comput.,
     2021, 17, 4250-4261. DOI: 10.1021/acs.jctc.1c00471
   
   for DFT-D4:
   * E. Caldeweyher, C. Bannwarth and S. Grimme, J. Chem. Phys., 2017,
     147, 034112. DOI: 10.1063/1.4993215
   * E. Caldeweyher, S. Ehlert, A. Hansen, H. Neugebauer, S. Spicher,
     C. Bannwarth and S. Grimme, J. Chem. Phys., 2019, 150, 154122.
     DOI: 10.1063/1.5090222
   * E. Caldeweyher, J.-M. Mewes, S. Ehlert and S. Grimme, Phys. Chem. Chem. Phys.
     2020, 22, 8499-8512. DOI: 10.1039/D0CP00502A
   
   for sTDA-xTB:
   * S. Grimme and C. Bannwarth, J. Chem. Phys., 2016, 145, 054103.
     DOI: 10.1063/1.4959605
   
   in the mass-spec context:
   * V. Asgeirsson, C. Bauer and S. Grimme, Chem. Sci., 2017, 8, 4879.
     DOI: 10.1039/c7sc00601b
   * J. Koopman and S. Grimme, ACS Omega 2019, 4, 12, 15120-15133.
     DOI: 10.1021/acsomega.9b02011
   
   for metadynamics refer to:
   * S. Grimme, J. Chem. Theory Comput., 2019, 155, 2847-2862
     DOI: 10.1021/acs.jctc.9b00143
   
   for SPH calculations refer to:
   * S. Spicher and S. Grimme, J. Chem. Theory Comput., 2021, 17, 1701-1714
     DOI: 10.1021/acs.jctc.0c01306
   
   with help from (in alphabetical order)
   P. Atkinson, C. Bannwarth, F. Bohle, G. Brandenburg, E. Caldeweyher
   M. Checinski, S. Dohm, S. Ehlert, S. Ehrlich, I. Gerasimov, J. Koopman
   C. Lavigne, S. Lehtola, F. März, M. Müller, F. Musil, H. Neugebauer
   J. Pisarek, C. Plett, P. Pracht, J. Seibert, P. Shushkov, S. Spicher
   M. Stahn, M. Steiner, T. Strunk, J. Stückrath, T. Rose, and J. Unsleber
   
 * started run on 2022/01/14 at 13:32:43.303     

           -------------------------------------------------
          |                Calculation Setup                |
           -------------------------------------------------

          program call               : xtb xtbopt.xyz --sp --alpb thf -P 6
          hostname                   : seskscpg007.prim.scp
          coordinate file            : xtbopt.xyz
          omp threads                :                     6
          number of atoms            :                   103
          number of electrons        :                   280
          charge                     :                     0
          spin                       :                   0.0
          first test random number   :      0.61259777288456

   ID    Z sym.   atoms
    1    7 N      1, 11, 100
    2    6 C      2-6, 10, 12-15, 23, 24, 28, 32, 34, 38, 44, 45, 49, 53, 55,
                  59, 65, 66, 70, 74, 76, 80, 86-91, 95, 97, 98
    3    1 H      7-9, 16-18, 20, 25-27, 29-31, 35-37, 39-41, 46-48, 50-52,
                  56-58, 60-62, 67-69, 71-73, 77-79, 81-85, 92, 96, 99,
                  101-103
    4   77 Ir     19
    5    5 B      21, 42, 63
    6    8 O      22, 33, 43, 54, 64, 75, 93, 94

molecular fragmentation (1/2 indicates fragments):
111111111111111111111111111111111111111111111111111111111111111111111111
1111111111111222222222222222222
# atoms in fragment 1/2:    85    18
 fragment masses (1/2) :      730.32      160.15
CMA distance (Bohr)    :   8.453
constraining FC (au)   :  0.0500

           -------------------------------------------------
          |                 G F N 2 - x T B                 |
           -------------------------------------------------

        Reference                      10.1021/acs.jctc.8b01176
      * Hamiltonian:
        H0-scaling (s, p, d)           1.850000    2.230000    2.230000
        zeta-weighting                 0.500000
      * Dispersion:
        s8                             2.700000
        a1                             0.520000
        a2                             5.000000
        s9                             5.000000
      * Repulsion:
        kExp                           1.500000    1.000000
        rExp                           1.000000
      * Coulomb:
        alpha                          2.000000
        third order                    shell-resolved
        anisotropic                    true
        a3                             3.000000
        a5                             4.000000
        cn-shift                       1.200000
        cn-exp                         4.000000
        max-rad                        5.000000

      * Solvation model:               ALPB
        Solvent                        thf
        Parameter file                 internal GFN2-xTB/ALPB
        Dielectric constant                7.6000E+00
        Reference state                gsolv [1 M gas/solution]
        Free energy shift                  5.3248E-03 Eh       3.3414E+00 kcal/mol
        Temperature                        2.9815E+02 K
        Density                            8.8300E-01 kg/L
        Solvent mass                       7.2106E+01 g/mol
        Interaction kernel             P16
        Born radius scaling (c1)           1.7311E+00
        Born radii integrator          GBOBC
        Born offset                        0.0000E+00 a0       0.0000E+00 AA
        H-bond correction              true
        Ion screening                  false
        Surface tension                    1.0000E-05 Eh       1.5569E+01 dyn/cm
        Grid points                               230 per atom
q/qsh data taken from xtbrestart
CAMM data taken from xtbrestart

          ...................................................
          :                      SETUP                      :
          :.................................................:
          :  # basis functions                 265          :
          :  # atomic orbitals                 264          :
          :  # shells                          156          :
          :  # electrons                       280          :
          :  max. iterations                   250          :
          :  Hamiltonian                  GFN2-xTB          :
          :  restarted?                       true          :
          :  GBSA solvation                   true          :
          :  PC potential                    false          :
          :  electronic temp.          300.0000000     K    :
          :  accuracy                    1.0000000          :
          :  -> integral cutoff          0.2500000E+02      :
          :  -> integral neglect         0.1000000E-07      :
          :  -> SCF convergence          0.1000000E-05 Eh   :
          :  -> wf. convergence          0.1000000E-03 e    :
          :  Broyden damping             0.4000000          :
          ...................................................

 iter      E             dE          RMSdq      gap      omega  full diag
   1   -156.4207620 -0.156421E+03  0.158E-05    0.92       0.0  T
   2   -156.4207620  0.192415E-10  0.192E-05    0.92     514.2  T
   3   -156.4207620 -0.203215E-10  0.103E-05    0.92     960.2  T

   *** convergence criteria satisfied after 3 iterations ***

         #    Occupation            Energy/Eh            Energy/eV
      -------------------------------------------------------------
         1        2.0000           -0.7458850             -20.2966
       ...           ...                  ...                  ...
       134        2.0000           -0.3863490             -10.5131
       135        2.0000           -0.3549130              -9.6577
       136        2.0000           -0.3396863              -9.2433
       137        2.0000           -0.3319116              -9.0318
       138        2.0000           -0.3277945              -8.9197
       139        2.0000           -0.3194061              -8.6915
       140        2.0000           -0.3149801              -8.5710 (HOMO)
       141                         -0.2811668              -7.6509 (LUMO)
       142                         -0.2786413              -7.5822
       143                         -0.2531612              -6.8889
       144                         -0.2472588              -6.7283
       145                         -0.2305194              -6.2728
       ...                                ...                  ...
       264                          3.8046799             103.5306
      -------------------------------------------------------------
                  HL-Gap            0.0338133 Eh            0.9201 eV
             Fermi-level           -0.2981011 Eh           -8.1117 eV

 SCC (total)                   0 d,  0 h,  0 min,  0.089 sec
 SCC setup                      ...        0 min,  0.002 sec (  2.771%)
 Dispersion                     ...        0 min,  0.003 sec (  3.437%)
 classical contributions        ...        0 min,  0.000 sec (  0.204%)
 integral evaluation            ...        0 min,  0.011 sec ( 12.554%)
 iterations                     ...        0 min,  0.034 sec ( 38.276%)
 molecular gradient             ...        0 min,  0.037 sec ( 41.930%)
 printout                       ...        0 min,  0.001 sec (  0.748%)

         :::::::::::::::::::::::::::::::::::::::::::::::::::::
         ::                     SUMMARY                     ::
         :::::::::::::::::::::::::::::::::::::::::::::::::::::
         :: total energy            -154.419850958516 Eh    ::
         :: total w/o Gsasa/hb      -154.378033287673 Eh    ::
         :: gradient norm              0.033359645377 Eh/a0 ::
         :: HOMO-LUMO gap              0.920105773651 eV    ::
         ::.................................................::
         :: SCC energy              -156.420762017285 Eh    ::
         :: -> isotropic ES            0.292321062150 Eh    ::
         :: -> anisotropic ES          0.007122109105 Eh    ::
         :: -> anisotropic XC          0.060056634076 Eh    ::
         :: -> dispersion             -0.150068895305 Eh    ::
         :: -> Gsolv                  -0.056422483416 Eh    ::
         ::    -> Gelec               -0.014604812573 Eh    ::
         ::    -> Gsasa               -0.044022476591 Eh    ::
         ::    -> Ghb                 -0.003120009696 Eh    ::
         ::    -> Gshift               0.005324815444 Eh    ::
         :: repulsion energy           1.991489701051 Eh    ::
         :: add. restraining           0.000000000000 Eh    ::
         :: total charge              -0.000000000004 e     ::
         :::::::::::::::::::::::::::::::::::::::::::::::::::::

           -------------------------------------------------
          |                Property Printout                |
           -------------------------------------------------

    * Orbital Energies and Occupations

         #    Occupation            Energy/Eh            Energy/eV
      -------------------------------------------------------------
         1        2.0000           -0.7458850             -20.2966
       ...           ...                  ...                  ...
       128        2.0000           -0.4072828             -11.0827
       129        2.0000           -0.4051795             -11.0255
       130        2.0000           -0.3982328             -10.8365
       131        2.0000           -0.3929902             -10.6938
       132        2.0000           -0.3911219             -10.6430
       133        2.0000           -0.3866669             -10.5217
       134        2.0000           -0.3863490             -10.5131
       135        2.0000           -0.3549130              -9.6577
       136        2.0000           -0.3396863              -9.2433
       137        2.0000           -0.3319116              -9.0318
       138        2.0000           -0.3277945              -8.9197
       139        2.0000           -0.3194061              -8.6915
       140        2.0000           -0.3149801              -8.5710 (HOMO)
       141                         -0.2811668              -7.6509 (LUMO)
       142                         -0.2786413              -7.5822
       143                         -0.2531612              -6.8889
       144                         -0.2472588              -6.7283
       145                         -0.2305194              -6.2728
       146                         -0.2246144              -6.1121
       147                         -0.2083685              -5.6700
       148                         -0.2068931              -5.6298
       149                         -0.1963285              -5.3424
       150                         -0.1621394              -4.4120
       151                         -0.1464068              -3.9839
       ...                                ...                  ...
       264                          3.8046799             103.5306
      -------------------------------------------------------------
                  HL-Gap            0.0338133 Eh            0.9201 eV
             Fermi-level           -0.2981011 Eh           -8.1117 eV

     #   Z          covCN         q      C6AA      α(0)
     1   7 N        2.560    -0.106    23.343     7.175
     2   6 C        2.959     0.086    26.079     8.376
     3   6 C        2.919    -0.040    29.004     8.832
     4   6 C        2.924    -0.019    28.495     8.754
     5   6 C        2.916    -0.041    29.015     8.833
     6   6 C        2.896     0.053    26.817     8.491
     7   1 H        0.926     0.054     2.269     2.356
     8   1 H        0.926     0.061     2.190     2.314
     9   1 H        0.926     0.049     2.338     2.391
    10   6 C        2.955     0.080    26.207     8.397
    11   7 N        2.561    -0.138    24.013     7.278
    12   6 C        2.890     0.045    26.995     8.518
    13   6 C        2.915    -0.043    29.080     8.843
    14   6 C        2.923    -0.023    28.586     8.768
    15   6 C        2.919    -0.045    29.124     8.850
    16   1 H        0.926     0.048     2.346     2.395
    17   1 H        0.926     0.057     2.237     2.339
    18   1 H        0.926     0.071     2.069     2.249
    19  77 Ir       5.959    -0.147   387.119    36.385
    20   1 H        0.977     0.102     1.764     2.076
    21   5 B        2.628     0.406    15.988     6.757
    22   8 O        1.638    -0.405    20.956     6.179
    23   6 C        3.835     0.130    18.451     6.111
    24   6 C        3.755    -0.124    22.930     6.828
    25   1 H        0.925     0.056     2.248     2.345
    26   1 H        0.925     0.048     2.345     2.395
    27   1 H        0.925     0.053     2.285     2.364
    28   6 C        3.754    -0.111    22.689     6.792
    29   1 H        0.925     0.051     2.307     2.375
    30   1 H        0.925     0.043     2.408     2.427
    31   1 H        0.925     0.029     2.598     2.520
    32   6 C        3.840     0.130    18.443     6.109
    33   8 O        1.637    -0.398    20.822     6.159
    34   6 C        3.755    -0.123    22.912     6.825
    35   1 H        0.925     0.052     2.298     2.371
    36   1 H        0.925     0.050     2.320     2.382
    37   1 H        0.925     0.051     2.307     2.375
    38   6 C        3.754    -0.121    22.885     6.821
    39   1 H        0.925     0.048     2.341     2.393
    40   1 H        0.925     0.055     2.260     2.351
    41   1 H        0.925     0.048     2.340     2.392
    42   5 B        2.619     0.400    16.117     6.793
    43   8 O        1.637    -0.378    20.443     6.103
    44   6 C        3.833     0.127    18.490     6.118
    45   6 C        3.755    -0.126    22.971     6.834
    46   1 H        0.925     0.051     2.313     2.378
    47   1 H        0.925     0.060     2.204     2.322
    48   1 H        0.925     0.052     2.296     2.370
    49   6 C        3.755    -0.124    22.939     6.829
    50   1 H        0.925     0.051     2.307     2.375
    51   1 H        0.925     0.048     2.343     2.394
    52   1 H        0.925     0.055     2.257     2.349
    53   6 C        3.829     0.127    18.495     6.119
    54   8 O        1.637    -0.386    20.587     6.125
    55   6 C        3.755    -0.125    22.954     6.831
    56   1 H        0.925     0.055     2.254     2.348
    57   1 H        0.925     0.054     2.265     2.353
    58   1 H        0.925     0.051     2.310     2.377
    59   6 C        3.755    -0.120    22.852     6.816
    60   1 H        0.925     0.036     2.507     2.476
    61   1 H        0.925     0.055     2.257     2.349
    62   1 H        0.925     0.051     2.311     2.377
    63   5 B        2.628     0.402    16.042     6.768
    64   8 O        1.637    -0.376    20.401     6.097
    65   6 C        3.833     0.125    18.523     6.123
    66   6 C        3.755    -0.129    23.037     6.844
    67   1 H        0.925     0.056     2.243     2.342
    68   1 H        0.925     0.055     2.261     2.351
    69   1 H        0.925     0.052     2.289     2.366
    70   6 C        3.755    -0.130    23.061     6.847
    71   1 H        0.925     0.061     2.186     2.312
    72   1 H        0.925     0.053     2.286     2.364
    73   1 H        0.925     0.053     2.277     2.360
    74   6 C        3.830     0.127    18.506     6.121
    75   8 O        1.636    -0.379    20.463     6.106
    76   6 C        3.755    -0.126    22.980     6.835
    77   1 H        0.925     0.053     2.281     2.362
    78   1 H        0.925     0.056     2.252     2.347
    79   1 H        0.925     0.056     2.242     2.342
    80   6 C        3.755    -0.124    22.938     6.829
    81   1 H        0.925     0.040     2.452     2.449
    82   1 H        0.925     0.054     2.274     2.358
    83   1 H        0.925     0.057     2.237     2.339
    84   1 H        0.926     0.058     2.220     2.330
    85   1 H        0.926     0.057     2.237     2.339
    86   6 C        2.827    -0.019    28.465     8.742
    87   6 C        2.973    -0.021    28.537     8.762
    88   6 C        2.930    -0.026    28.644     8.777
    89   6 C        2.726     0.355    20.974     7.498
    90   6 C        2.923    -0.029    28.729     8.790
    91   6 C        2.971     0.019    27.573     8.613
    92   1 H        0.926     0.068     2.109     2.271
    93   8 O        0.856    -0.459    22.903     6.416
    94   8 O        1.704    -0.285    18.739     5.845
    95   6 C        2.922    -0.034    28.850     8.808
    96   1 H        0.926     0.056     2.242     2.341
    97   6 C        1.913     0.117    28.220     8.579
    98   6 C        3.651     0.027    20.439     6.494
    99   1 H        0.926     0.054     2.266     2.354
   100   7 N        0.911    -0.267    26.915     7.503
   101   1 H        0.924     0.069     2.101     2.267
   102   1 H        0.924     0.055     2.264     2.353
   103   1 H        0.925     0.088     1.900     2.156

 Mol. C6AA /au·bohr⁶  :     116443.106783
 Mol. C8AA /au·bohr⁸  :    3091842.982186
 Mol. α(0) /au        :        528.029474


Wiberg/Mayer (AO) data.
largest (>0.10) Wiberg bond orders for each atom

 ---------------------------------------------------------------------------
     #   Z sym  total        # sym  WBO       # sym  WBO       # sym  WBO
 ---------------------------------------------------------------------------
     1   7 N    3.418 --     6 C    1.397     2 C    1.319    19 Ir   0.437
     2   6 C    3.978 --     3 C    1.351     1 N    1.319    10 C    1.084
     3   6 C    3.987 --     4 C    1.480     2 C    1.351     9 H    0.962
                             6 C    0.106
     4   6 C    3.984 --     3 C    1.480     5 C    1.391    84 H    0.968
     5   6 C    3.978 --     6 C    1.453     4 C    1.391     8 H    0.968
     6   6 C    3.977 --     5 C    1.453     1 N    1.397     7 H    0.956
                             3 C    0.106
     7   1 H    0.997 --     6 C    0.956
     8   1 H    0.995 --     5 C    0.968
     9   1 H    0.997 --     3 C    0.962
    10   6 C    3.978 --    15 C    1.357    11 N    1.308     2 C    1.084
    11   7 N    3.400 --    12 C    1.384    10 C    1.308    19 Ir   0.426
    12   6 C    3.973 --    13 C    1.457    11 N    1.384    18 H    0.950
                            15 C    0.105
    13   6 C    3.981 --    12 C    1.457    14 C    1.389    17 H    0.968
    14   6 C    3.982 --    15 C    1.474    13 C    1.389    85 H    0.968
    15   6 C    3.989 --    14 C    1.474    10 C    1.357    16 H    0.961
                            12 C    0.105
    16   1 H    0.997 --    15 C    0.961
    17   1 H    0.996 --    13 C    0.968
    18   1 H    0.994 --    12 C    0.950
    19  77 Ir   5.170 --    63 B    0.860    42 B    0.837    21 B    0.733
                            86 C    0.598    20 H    0.514     1 N    0.437
                            11 N    0.426
    20   1 H    0.986 --    19 Ir   0.514    86 C    0.361
    21   5 B    3.289 --    33 O    1.122    22 O    1.100    19 Ir   0.733
    22   8 O    2.199 --    21 B    1.100    23 C    0.938
    23   6 C    3.940 --    24 C    0.997    28 C    0.991    32 C    0.941
                            22 O    0.938
    24   6 C    3.993 --    23 C    0.997    26 H    0.983    27 H    0.983
                            25 H    0.982
    25   1 H    0.997 --    24 C    0.982
    26   1 H    0.996 --    24 C    0.983
    27   1 H    0.997 --    24 C    0.983
    28   6 C    3.996 --    23 C    0.991    31 H    0.985    30 H    0.984
                            29 H    0.984
    29   1 H    0.997 --    28 C    0.984
    30   1 H    0.998 --    28 C    0.984
    31   1 H    0.999 --    28 C    0.985
    32   6 C    3.937 --    38 C    0.997    34 C    0.991    23 C    0.941
                            33 O    0.935
    33   8 O    2.211 --    21 B    1.122    32 C    0.935
    34   6 C    3.993 --    32 C    0.991    36 H    0.983    37 H    0.982
                            35 H    0.982
    35   1 H    0.997 --    34 C    0.982
    36   1 H    0.997 --    34 C    0.983
    37   1 H    0.997 --    34 C    0.982
    38   6 C    3.994 --    32 C    0.997    41 H    0.983    39 H    0.983
                            40 H    0.982
    39   1 H    0.998 --    38 C    0.983
    40   1 H    0.997 --    38 C    0.982
    41   1 H    0.996 --    38 C    0.983
    42   5 B    3.342 --    43 O    1.128    54 O    1.110    19 Ir   0.837
    43   8 O    2.234 --    42 B    1.128    44 C    0.935
    44   6 C    3.934 --    45 C    0.996    49 C    0.991    53 C    0.938
                            43 O    0.935
    45   6 C    3.992 --    44 C    0.996    48 H    0.983    46 H    0.982
                            47 H    0.981
    46   1 H    0.997 --    45 C    0.982
    47   1 H    0.996 --    45 C    0.981
    48   1 H    0.996 --    45 C    0.983
    49   6 C    3.993 --    44 C    0.991    50 H    0.983    51 H    0.983
                            52 H    0.979
    50   1 H    0.996 --    49 C    0.983
    51   1 H    0.997 --    49 C    0.983
    52   1 H    0.997 --    49 C    0.979
    53   6 C    3.936 --    55 C    0.996    59 C    0.993    44 C    0.938
                            54 O    0.933
    54   8 O    2.225 --    42 B    1.110    53 C    0.933
    55   6 C    3.992 --    53 C    0.996    58 H    0.983    57 H    0.983
                            56 H    0.982
    56   1 H    0.997 --    55 C    0.982
    57   1 H    0.997 --    55 C    0.983
    58   1 H    0.996 --    55 C    0.983
    59   6 C    3.994 --    53 C    0.993    62 H    0.983    61 H    0.983
                            60 H    0.982
    60   1 H    0.999 --    59 C    0.982
    61   1 H    0.996 --    59 C    0.983
    62   1 H    0.997 --    59 C    0.983
    63   5 B    3.367 --    75 O    1.123    64 O    1.119    19 Ir   0.860
    64   8 O    2.234 --    63 B    1.119    65 C    0.935
    65   6 C    3.935 --    70 C    0.997    66 C    0.991    74 C    0.938
                            64 O    0.935
    66   6 C    3.992 --    65 C    0.991    69 H    0.983    68 H    0.982
                            67 H    0.979
    67   1 H    0.997 --    66 C    0.979
    68   1 H    0.997 --    66 C    0.982
    69   1 H    0.996 --    66 C    0.983
    70   6 C    3.992 --    65 C    0.997    72 H    0.983    73 H    0.982
                            71 H    0.982
    71   1 H    0.996 --    70 C    0.982
    72   1 H    0.996 --    70 C    0.983
    73   1 H    0.997 --    70 C    0.982
    74   6 C    3.933 --    76 C    0.997    80 C    0.992    65 C    0.938
                            75 O    0.932
    75   8 O    2.235 --    63 B    1.123    74 C    0.932
    76   6 C    3.992 --    74 C    0.997    77 H    0.982    79 H    0.982
                            78 H    0.982
    77   1 H    0.996 --    76 C    0.982
    78   1 H    0.997 --    76 C    0.982
    79   1 H    0.997 --    76 C    0.982
    80   6 C    3.994 --    74 C    0.992    83 H    0.983    82 H    0.983
                            81 H    0.983
    81   1 H    0.998 --    80 C    0.983
    82   1 H    0.997 --    80 C    0.983
    83   1 H    0.996 --    80 C    0.983
    84   1 H    0.996 --     4 C    0.968
    85   1 H    0.996 --    14 C    0.968
    86   6 C    3.935 --    88 C    1.371    87 C    1.329    19 Ir   0.598
                            20 H    0.361
    87   6 C    3.962 --    90 C    1.345    86 C    1.329    89 C    1.014
    88   6 C    3.986 --    91 C    1.386    86 C    1.371    92 H    0.958
    89   6 C    3.909 --    93 O    1.682    94 O    1.109    87 C    1.014
    90   6 C    3.985 --    95 C    1.492    87 C    1.345    96 H    0.963
    91   6 C    3.984 --    88 C    1.386    95 C    1.306    97 C    1.103
    92   1 H    0.995 --    88 C    0.958
    93   8 O    1.998 --    89 C    1.682    94 O    0.158
    94   8 O    2.279 --    89 C    1.109    98 C    0.952    93 O    0.158
    95   6 C    3.983 --    90 C    1.492    91 C    1.306    99 H    0.968
    96   1 H    0.995 --    90 C    0.963
    97   6 C    3.940 --   100 N    2.782    91 C    1.103
    98   6 C    3.918 --   103 H    0.979   101 H    0.977   102 H    0.974
                            94 O    0.952
    99   1 H    0.995 --    95 C    0.968
   100   7 N    2.960 --    97 C    2.782
   101   1 H    0.995 --    98 C    0.977
   102   1 H    0.997 --    98 C    0.974
   103   1 H    0.992 --    98 C    0.979
 ---------------------------------------------------------------------------

Topologies differ in total number of bonds
Writing topology from bond orders to xtbtopo.mol

molecular dipole:
                 x           y           z       tot (Debye)
 q only:       -0.861       1.044      -2.205
   full:       -2.405       1.095      -2.786       9.759
molecular quadrupole (traceless):
                xx          xy          yy          xz          yz          zz
 q only:       25.840       3.022       1.876     -21.525      15.983     -27.716
  q+dip:       27.845       5.216       4.385     -29.883      18.756     -32.230
   full:       24.453       6.202       8.658     -32.897      15.095     -33.111


           -------------------------------------------------
          | TOTAL ENERGY             -154.419850958516 Eh   |
          | GRADIENT NORM               0.033359645377 Eh/α |
          | HOMO-LUMO GAP               0.920105773651 eV   |
           -------------------------------------------------

------------------------------------------------------------------------
 * finished run on 2022/01/14 at 13:32:43.425     
------------------------------------------------------------------------
 total:
 * wall-time:     0 d,  0 h,  0 min,  0.122 sec
 *  cpu-time:     0 d,  0 h,  0 min,  0.713 sec
 * ratio c/w:     5.827 speedup
 SCF:
 * wall-time:     0 d,  0 h,  0 min,  0.091 sec
 *  cpu-time:     0 d,  0 h,  0 min,  0.542 sec
 * ratio c/w:     5.957 speedup

