9
 energy: -21.446398795678 gnorm: 0.050023292389 xtb: 6.4.1 (1a32961)
C        -0.43292000000000   -1.17292000000000    0.00550000000000
C        -1.16773000000000   -0.01304000000000    0.00169000000000
C        -0.31627000000000    1.13548000000000   -0.00027000000000
C         1.00873000000000    0.76944000000000    0.00252000000000
Br        2.42303000000000    1.99744000000000    0.00267000000000
S         1.24115000000000   -0.91203000000000    0.00613000000000
Cl       -1.04681000000000   -2.77624000000000    0.00984000000000
H        -2.24998000000000    0.01812000000000    0.00069000000000
H        -0.66660000000000    2.16064000000000   -0.00300000000000
9
 energy: -21.448217307296 gnorm: 0.024702769208 xtb: 6.4.1 (1a32961)
C        -0.43521286756163   -1.16998763581665    0.00552476016926
C        -1.16032767199655   -0.01315069592897    0.00181461136132
C        -0.32468550340925    1.12821659104125    0.00030517875878
C         0.99728527895650    0.78483165348254    0.00250273360790
Br        2.43801755957370    1.99226256992321    0.00157204715517
S         1.25603152716489   -0.90793408367496    0.00739063456255
Cl       -1.06215744989876   -2.76969810822224    0.00902396981889
H        -2.23410237579594    0.02041377230637    0.00032838874220
H        -0.68224849703296    2.14193593688945   -0.00269232417608
9
 energy: -21.448732840635 gnorm: 0.008023194938 xtb: 6.4.1 (1a32961)
C        -0.43948708024038   -1.17290624303143    0.00569650452468
C        -1.15494296511226   -0.01525162723210    0.00208191093530
C        -0.32814085902932    1.12562120685096    0.00023354310633
C         0.99113994433728    0.79832506081606    0.00276136714973
Br        2.44788256297333    1.99260831330212    0.00129473784126
S         1.26869252946666   -0.90801145979282    0.00765299666545
Cl       -1.07542421947592   -2.76901987258984    0.00852208579060
H        -2.22591560654988    0.02082538726762    0.00043700434593
H        -0.69120430636951    2.13469923440945   -0.00291015035928
9
 energy: -21.448789860057 gnorm: 0.003593446311 xtb: 6.4.1 (1a32961)
C        -0.44201463764838   -1.17538959465285    0.00570832101839
C        -1.15443417282733   -0.01660517061245    0.00187889863128
C        -0.32703935507648    1.12630510281838    0.00035761239341
C         0.99192608352749    0.80155504570623    0.00269434076858
Br        2.44870842716148    1.99438317399440    0.00150660555754
S         1.27158648537956   -0.90983657179745    0.00719325770352
Cl       -1.07764499280360   -2.77001956915118    0.00897681788529
H        -2.22645443805257    0.02078917190491    0.00021687578340
H        -0.69203339966018    2.13570841179000   -0.00276272974143
9
 energy: -21.448803866804 gnorm: 0.000947723126 xtb: 6.4.1 (1a32961)
C        -0.44394684417453   -1.17672410705795    0.00560217731898
C        -1.15467157687772   -0.01722175756290    0.00195105630675
C        -0.32561440739862    1.12685951497978    0.00017219709402
C         0.99328639681126    0.80237421621040    0.00261077093716
Br        2.44760056683217    1.99538505678732    0.00170651512740
S         1.27232422315596   -0.91156658139604    0.00718259804950
Cl       -1.07692139986542   -2.77038086905922    0.00899368979027
H        -2.22750627654287    0.02160828636951    0.00042228615622
H        -0.69195068194023    2.13655624072911   -0.00287129078030
9
 energy: -21.448805281900 gnorm: 0.000364567973 xtb: 6.4.1 (1a32961)
C        -0.44479342271549   -1.17682529943073    0.00572600696102
C        -1.15501298190170   -0.01714944584531    0.00185501858920
C        -0.32504646401674    1.12685870646521    0.00042223372205
C         0.99387554249359    0.80208236372565    0.00279740236884
Br        2.44684004623761    1.99518033832329    0.00140918576883
S         1.27189010127262   -0.91212797497394    0.00717188072158
Cl       -1.07520648446193   -2.77018317354279    0.00899356957812
H        -2.22787677346262    0.02269731460786    0.00012539489820
H        -0.69206956344534    2.13635717067076   -0.00273069260784
9
 energy: -21.448805452361 gnorm: 0.000115000579 xtb: 6.4.1 (1a32961)
C        -0.44478794796502   -1.17671496400543    0.00558674663546
C        -1.15503960770088   -0.01703023105507    0.00197812916655
C        -0.32519123174517    1.12673430746838    0.00009085063452
C         0.99373741941901    0.80197596051817    0.00252990774725
Br        2.44706309366297    1.99487254571330    0.00179152481188
S         1.27167323112720   -0.91189821676443    0.00721195640624
Cl       -1.07479594607478   -2.77013917065376    0.00897424266110
H        -2.22775157887903    0.02301288928397    0.00050612154226
H        -0.69230743184431    2.13607687949486   -0.00289947960526
