109
 energy: -157.544804741956 gnorm: 0.000556797010 xtb: 6.4.1 (1a32961)
N        -0.97419917613039   -2.25553984870338   -0.14052806086324
C        -2.27848468472277   -1.93911211759621   -0.12544370522302
C        -3.25710357674710   -2.86165834121387   -0.51386274529390
C        -2.87606053548769   -4.11056621225235   -0.95708343930967
C        -1.51823074611141   -4.41003488769530   -1.00994650995408
C        -0.61449193771912   -3.45458763276867   -0.58561300643798
H         0.44937974896048   -3.63922686296176   -0.59994495427422
H        -1.17322231985587   -5.36916094732274   -1.36067839660773
H        -4.30310299723981   -2.60959562724841   -0.44637316773345
C        -2.61355197767789   -0.59154401332399    0.32409144065777
N        -1.65992943044381    0.07575172184849    1.00128375342205
C        -1.93386483486912    1.30649695537266    1.42622807777773
C        -3.14117964090691    1.94024790948849    1.20440236141103
C        -4.12482190730842    1.27031556997193    0.48387472901924
C        -3.85213911394453   -0.00639714315481    0.03854005423453
H        -4.58365608596293   -0.53929452720751   -0.54695140033356
H        -3.30793806077361    2.93707204343879    1.57967227101604
H        -1.13272281353639    1.79717010387442    1.95501513897889
Ir        0.42150000000015   -0.81649999999965    0.91330000000292
H         0.87260000000013   -2.23030000000048    1.54049999999996
B         0.42799188388772    0.39407711732953   -0.76820485117615
O         0.05348932823670   -0.12147329776688   -1.99721731733496
C        -0.27658337086530    0.93544000796703   -2.90333616041801
C         0.29261111670968    0.61698503512884   -4.28580300494045
H         1.36158326241354    0.43656744778227   -4.23867109930821
H         0.09237279379751    1.43538591912659   -4.97220151392855
H        -0.18573758176035   -0.28416522904471   -4.66270222001058
C        -1.80870678055881    0.97862759306502   -3.00189275937305
H        -2.13731159648839    1.74154952251057   -3.70125363877762
H        -2.16060928008787    0.00792139078800   -3.34503274619221
H        -2.24469062705022    1.16584616662133   -2.02350332722408
C         0.33184301094474    2.20262121316862   -2.20502639019081
O         0.53736065724586    1.76093957865957   -0.85753575995492
C         1.70193296609449    2.60147485089369   -2.76716375635177
H         2.38484994606921    1.75862320034681   -2.71126380699788
H         1.61946089807438    2.94711260320067   -3.79340471532151
H         2.10921240017246    3.40288062081609   -2.15519056572805
C        -0.57745023056967    3.43194199852177   -2.19762624095054
H        -1.49632337570646    3.23628804736396   -1.65378689436317
H        -0.06063373860503    4.24804382490132   -1.69913666453924
H        -0.81202765607740    3.73280261051174   -3.21520992667619
B         1.47164892064700    0.67607222860519    1.92382325565128
O         2.78664854716434    0.69019925668777    2.34844993272184
C         3.17513210914873    2.05572799533326    2.56891296485018
C         4.23035301390607    2.15924817999905    3.66511834358368
H         3.93048066390584    1.59200547818068    4.54026124381251
H         5.17376109140915    1.76413456089157    3.29829478172249
H         4.37247565820780    3.20138821628288    3.93987894327686
C         3.75293505254951    2.55889695560412    1.24080314585450
H         4.14041187901922    3.56971957676749    1.33104820517280
H         4.55147255792717    1.88427123042497    0.94393291980560
H         2.98206831969588    2.50654504872679    0.47587607302725
C         1.81244804112682    2.73174171555558    2.91317564905627
O         0.88133221407739    1.88224662966865    2.23033503165886
C         1.66112923794910    4.16533302725202    2.41182941644898
H         1.64819725945676    4.18346651678481    1.32727672555659
H         0.72178675907518    4.57689756764848    2.77220051190874
H         2.47902432331461    4.77926108442162    2.77935772166955
C         1.48406762585003    2.66293347816976    4.41011888235821
H         1.60091166250114    1.64161824701979    4.76565723843144
H         2.12316333898665    3.32965132044842    4.98140100937811
H         0.44687757197119    2.95502832561570    4.55647700548934
B         2.27819999998832   -1.33089999999773    0.17409999999506
O         2.39060745818800   -2.57829824119751   -0.42035290832806
C         3.71280423019956   -2.77998666095726   -0.92678952697686
C         4.43737252581025   -3.70396895454839    0.05898001689992
H         4.38757739098069   -3.27016880236265    1.05256725794871
H         3.91698332604823   -4.65832495489186    0.08942112301758
H         5.46824922096562   -3.87147149655484   -0.23649064019440
C         3.63443888644512   -3.46446724638566   -2.29211492419692
H         3.23743417308706   -4.46783247072711   -2.15992521563301
H         4.62461241894810   -3.53579018411419   -2.73344614801584
H         2.97231588924972   -2.92567401346064   -2.96147856883117
C         4.29066950609042   -1.32308385199440   -0.94502563338895
O         3.42740987830061   -0.61745577722538   -0.04090691105852
C         5.73893369632230   -1.19705757807088   -0.47927029509095
H         6.38772198903182   -1.80103799774710   -1.10781249954436
H         6.04581325046810   -0.15705491316831   -0.55277573617180
H         5.83388436324155   -1.50728065121389    0.55498591055234
C         4.13706061756261   -0.64684904418074   -2.31414960389036
H         3.09465509218375   -0.68968109951958   -2.62178682931493
H         4.42309438933698    0.39792034183914   -2.21654912190376
H         4.76686038269662   -1.11911945298702   -3.06211653169949
H        -3.61702766804464   -4.83805778346936   -1.25246811864438
H        -5.07417464635493    1.73779001177721    0.26970397120421
C         0.23589999999607   -1.68140000000642    2.96029999999027
C        -0.97459650146005   -1.65760509681318    3.60200678855423
N         1.20953494587613   -1.67442816843020    3.95209788326902
C        -0.74499478063142   -1.59079291356885    5.00200844984140
H        -1.94109915335064   -1.67495537555150    3.13572146761796
C         0.59940490708447   -1.58750736814572    5.19014431897673
C         2.55866448955282   -1.93573053881936    3.76577093198143
H        -1.49602212243005   -1.54566407408487    5.76719982360786
H         1.18444635794959   -1.56587216938927    6.08679927222478
O         2.98521247776816   -2.54053363146785    2.81354417465417
O         3.26801715248244   -1.51203061273816    4.80316255984280
C         4.69823070038422   -1.79969545971524    4.88738711880382
C         5.17194005916030   -0.96914541916655    6.08076224576903
C         4.88623650461313   -3.29152509147834    5.16719400781252
C         5.42422413297807   -1.37831962620787    3.60868125438399
H         4.55915213633299   -1.18610615596782    6.95155005113952
H         5.09354335714954    0.08984184405096    5.85428866107993
H         6.20626353751871   -1.20980965705551    6.30611815195355
H         4.40335613699495   -3.56678546062389    6.10231402909502
H         5.94654311779041   -3.51630359807064    5.23475812795844
H         4.45238113713829   -3.87894325037609    4.36145385448663
H         4.88969891584381   -0.55998454217213    3.13240606761524
H         5.46399455884669   -2.20231720590778    2.90248362778249
H         6.43715196718285   -1.06546733269711    3.84652901582767
