9
 energy: -14.286740703580 gnorm: 0.039134673745 xtb: 6.4.1 (1a32961)
N        -0.25132000000000   -1.02806000000000    0.00114000000000
C         1.04719000000000   -0.60806000000000   -0.00132000000000
C         1.00191000000000    0.76534000000000   -0.00089000000000
C        -0.37033000000000    1.07493000000000    0.00229000000000
N        -1.13737000000000   -0.01802000000000    0.00329000000000
H        -0.60529000000000   -1.97908000000000    0.00180000000000
H         1.86859000000000   -1.30979000000000   -0.00286000000000
H         1.83901000000000    1.44849000000000   -0.00232000000000
H        -0.84224000000000    2.04914000000000    0.00409000000000
9
 energy: -14.288039380519 gnorm: 0.011538838550 xtb: 6.4.1 (1a32961)
N        -0.24602646655416   -1.03093185301253    0.00131000837659
C         1.03807292580315   -0.61074047442389   -0.00127915342561
C         0.99634337297719    0.76408150698143   -0.00048670567941
C        -0.36865276883099    1.07916386127920    0.00224320558800
N        -1.11370782808471   -0.01504693318318    0.00357714312797
H        -0.59782312355012   -1.97727917746986    0.00174797140672
H         1.85393548651792   -1.30621866979051   -0.00335802644254
H         1.82493633728951    1.44475596654370   -0.00203569619366
H        -0.83692793556779    2.04710577307564    0.00350125324194
9
 energy: -14.288127850270 gnorm: 0.003010244089 xtb: 6.4.1 (1a32961)
N        -0.24608917707565   -1.03043703760735    0.00127203030772
C         1.03421811618518   -0.61167857111929   -0.00112181803874
C         0.99608844007428    0.76329752850125   -0.00076352674879
C        -0.36937345118940    1.07887895339641    0.00235250470719
N        -1.10797009722251   -0.01501312602233    0.00325014267758
H        -0.59648233719422   -1.97521437917994    0.00166916406113
H         1.85176552233016   -1.30255867260990   -0.00302421339686
H         1.82315333272444    1.44297421214590   -0.00231772905061
H        -0.83516034863229    2.04464109249526    0.00390344548138
9
 energy: -14.288135746644 gnorm: 0.001206493942 xtb: 6.4.1 (1a32961)
N        -0.24708746546660   -1.03021795741117    0.00137486262180
C         1.03331762736478   -0.61219573489894   -0.00127555726065
C         0.99645635905568    0.76283284809186   -0.00048007035408
C        -0.37002415306781    1.07851449721072    0.00219109177865
N        -1.10810937644209   -0.01529770699550    0.00361175654170
H        -0.59678697559183   -1.97520345546763    0.00175943885543
H         1.85326357482244   -1.30063971162613   -0.00345697943219
H         1.82359366307437    1.44238981527138   -0.00193120469978
H        -0.83447325374893    2.04470740582542    0.00342666194913
9
 energy: -14.288137877163 gnorm: 0.000954056226 xtb: 6.4.1 (1a32961)
N        -0.24870584136542   -1.03017832691788    0.00120000642368
C         1.03227769943429   -0.61314885572948   -0.00088694460871
C         0.99667330245704    0.76196234232432   -0.00107204442590
C        -0.37080402206949    1.07815443581159    0.00261091212105
N        -1.10909135487044   -0.01551095780346    0.00291553494902
H        -0.59710320978984   -1.97593083418900    0.00147109523186
H         1.85601791420799   -1.29771899998696   -0.00257231584863
H         1.82386401859709    1.44159127415671   -0.00278204909116
H        -0.83297850660122    2.04566992233417    0.00433580524879
9
 energy: -14.288138506910 gnorm: 0.000305637279 xtb: 6.4.1 (1a32961)
N        -0.24843894832830   -1.03029341775091    0.00148789218546
C         1.03246457357052   -0.61308360882664   -0.00149329894926
C         0.99643937368845    0.76203399530531   -0.00020889833476
C        -0.37053652638943    1.07829601076834    0.00195447452095
N        -1.10908381533775   -0.01533005021034    0.00393619276009
H        -0.59680506068984   -1.97604942591756    0.00192820982461
H         1.85551995655060   -1.29818684234451   -0.00390661720954
H         1.82354561469827    1.44176456922761   -0.00147399092517
H        -0.83295516776252    2.04573876974870    0.00299603612761
