9
 energy: -13.824203721292 gnorm: 0.034921091371 xtb: 6.4.1 (1a32961)
C         0.10407000000000    1.23205000000000   -0.00493000000000
S        -1.08317000000000   -0.00090000000000   -0.00998000000000
C         0.11197000000000   -1.22618000000000   -0.00520000000000
C         1.38749000000000   -0.70559000000000    0.00149000000000
C         1.38296000000000    0.71960000000000    0.00136000000000
H        -0.19361000000000    2.27156000000000   -0.00667000000000
H        -0.17912000000000   -2.26755000000000   -0.00724000000000
H         2.28067000000000   -1.31822000000000    0.00586000000000
H         2.27214000000000    1.33791000000000    0.00542000000000
9
 energy: -13.825304939224 gnorm: 0.011657179946 xtb: 6.4.1 (1a32961)
C         0.11207149700074    1.22689030501302   -0.00466459156649
S        -1.08355833806929   -0.00089042994898   -0.01140432318173
C         0.11990051743390   -1.22099739806164   -0.00474334479722
C         1.37810277685317   -0.69997363271129    0.00097931011615
C         1.37359646512619    0.71393193505236    0.00120555928135
H        -0.18060665104823    2.25960372917992   -0.00602863648162
H        -0.16622183569432   -2.25555570744346   -0.00616629501265
H         2.26926513785270   -1.30302616390487    0.00532389955182
H         2.26085043054514    1.32269736282495    0.00560842209037
9
 energy: -13.825388258969 gnorm: 0.004722507396 xtb: 6.4.1 (1a32961)
C         0.11508921545174    1.22740613188157   -0.00488126163865
S        -1.08472213852550   -0.00088124426757   -0.01008812902503
C         0.12290718503616   -1.22150247824723   -0.00508002949887
C         1.37572615729760   -0.69957845441762    0.00120295257712
C         1.37121928057114    0.71352046747711    0.00107011981989
H        -0.17970294705902    2.25757682901277   -0.00653585920014
H        -0.16533248746572   -2.25354699716368   -0.00697941847998
H         2.26829439311620   -1.29842112019868    0.00577863488467
H         2.25992134157740    1.31810686592333    0.00562299056100
9
 energy: -13.825411035459 gnorm: 0.001766499692 xtb: 6.4.1 (1a32961)
C         0.11645433387260    1.22876985135201   -0.00453453420967
S        -1.08591156557941   -0.00087517603386   -0.01152703712264
C         0.12427667284447   -1.22285884367429   -0.00460676465030
C         1.37545325698959   -0.70014661260131    0.00086795790173
C         1.37093818707029    0.71408350995466    0.00118191344900
H        -0.18178022857304    2.25771945069912   -0.00610591137246
H        -0.16740668286423   -2.25371083208436   -0.00610553529405
H         2.26986980332892   -1.29637152880843    0.00522931670378
H         2.26150622291082    1.31607018119646    0.00571059459461
9
 energy: -13.825415210422 gnorm: 0.001130881208 xtb: 6.4.1 (1a32961)
C         0.11740324674743    1.23049017211057   -0.00533809743943
S        -1.08702393690731   -0.00087649289523   -0.00835728780563
C         0.12524225832836   -1.22456996768988   -0.00566774524604
C         1.37598842807070   -0.70102989096575    0.00145509683109
C         1.37147463858222    0.71496646066675    0.00080858373836
H        -0.18543079472082    2.25851247133680   -0.00703522600554
H        -0.17103595942763   -2.25452002575070   -0.00797003918149
H         2.27256388727768   -1.29481740475215    0.00652667915907
H         2.26421823204936    1.31452467793959    0.00568803594960
9
 energy: -13.825416718477 gnorm: 0.000421733250 xtb: 6.4.1 (1a32961)
C         0.11707115666554    1.23010656418967   -0.00420677814502
S        -1.08656639948022   -0.00088001162851   -0.01258746415057
C         0.12490749864388   -1.22418964078706   -0.00420719735307
C         1.37608932893611   -0.70085448647659    0.00078978562649
C         1.37157046237725    0.71479507986009    0.00139360707278
H        -0.18503270453830    2.25839013780138   -0.00587587551543
H        -0.17064979695724   -2.25439235692961   -0.00560747432943
H         2.27218400498429   -1.29527717349588    0.00478020760653
H         2.26382644936869    1.31498188746651    0.00563118918773
9
 energy: -13.825417289505 gnorm: 0.000330269406 xtb: 6.4.1 (1a32961)
C         0.11693367290261    1.22977113517416   -0.00490502521354
S        -1.08629603965541   -0.00088139938287   -0.01035974594987
C         0.12476888966382   -1.22385505296522   -0.00502924899412
C         1.37599080891914   -0.70067605936224    0.00100620360340
C         1.37147556259638    0.71461720991540    0.00100869761157
H        -0.18444966525852    2.25817267799058   -0.00640060871743
H        -0.17006786365138   -2.25417088129597   -0.00671598348688
H         2.27169960342985   -1.29549872973879    0.00572220311628
H         2.26334503105352    1.31520109966495    0.00578350803060
