      -----------------------------------------------------------      
     |                   =====================                   |     
     |                           x T B                           |     
     |                   =====================                   |     
     |                         S. Grimme                         |     
     |          Mulliken Center for Theoretical Chemistry        |     
     |                    University of Bonn                     |     
      -----------------------------------------------------------      

   * xtb version 6.4.0 (f63f532) compiled by 'knkr256@seskscpg008.prim.scp' on 2021-04-09

   xtb is free software: you can redistribute it and/or modify it under
   the terms of the GNU Lesser General Public License as published by
   the Free Software Foundation, either version 3 of the License, or
   (at your option) any later version.
   
   xtb is distributed in the hope that it will be useful,
   but WITHOUT ANY WARRANTY; without even the implied warranty of
   MERCHANTABILITY or FITNESS FOR A PARTICULAR PURPOSE.  See the
   GNU Lesser General Public License for more details.
   
   Cite this work as:
   * C. Bannwarth, E. Caldeweyher, S. Ehlert, A. Hansen, P. Pracht,
     J. Seibert, S. Spicher, S. Grimme, WIREs Comput. Mol. Sci., 2020, 11,
     e01493. DOI: 10.1002/wcms.1493
   
   for GFN2-xTB:
   * C. Bannwarth, S. Ehlert and S. Grimme., J. Chem. Theory Comput., 2019,
     15, 1652-1671. DOI: 10.1021/acs.jctc.8b01176
   for GFN1-xTB:
   * S. Grimme, C. Bannwarth, P. Shushkov, J. Chem. Theory Comput., 2017,
     13, 1989-2009. DOI: 10.1021/acs.jctc.7b00118
   for GFN0-xTB:
   * P. Pracht, E. Caldeweyher, S. Ehlert, S. Grimme, ChemRxiv, 2019, preprint.
     DOI: 10.26434/chemrxiv.8326202.v1
   for GFN-FF:
   * S. Spicher and S. Grimme, Angew. Chem. Int. Ed., 2020, 59, 15665-15673.
     DOI: 10.1002/anie.202004239
   
   for DFT-D4:
   * E. Caldeweyher, C. Bannwarth and S. Grimme, J. Chem. Phys., 2017,
     147, 034112. DOI: 10.1063/1.4993215
   * E. Caldeweyher, S. Ehlert, A. Hansen, H. Neugebauer, S. Spicher,
     C. Bannwarth and S. Grimme, J. Chem. Phys., 2019, 150, 154122.
     DOI: 10.1063/1.5090222
   * E. Caldeweyher, J.-M. Mewes, S. Ehlert and S. Grimme, Phys. Chem. Chem. Phys.
     2020, 22, 8499-8512. DOI: 10.1039/D0CP00502A
   
   for sTDA-xTB:
   * S. Grimme and C. Bannwarth, J. Chem. Phys., 2016, 145, 054103.
     DOI: 10.1063/1.4959605
   
   in the mass-spec context:
   * V. Asgeirsson, C. Bauer and S. Grimme, Chem. Sci., 2017, 8, 4879.
     DOI: 10.1039/c7sc00601b
   * J. Koopman and S. Grimme, ACS Omega 2019, 4, 12, 15120-15133.
     DOI: 10.1021/acsomega.9b02011
   
   for metadynamics refer to:
   * S. Grimme, J. Chem. Theory Comput., 2019, 155, 2847-2862
     DOI: 10.1021/acs.jctc.9b00143
   
   for SPH calculations refer to:
   * S. Spicher and S. Grimme, J. Chem. Theory Comput., 2021, 17, 1701-1714
     DOI: 10.1021/acs.jctc.0c01306
   
   with help from (in alphabetical order)
   P. Atkinson, C. Bannwarth, F. Bohle, G. Brandenburg, E. Caldeweyher
   M. Checinski, S. Dohm, S. Ehlert, S. Ehrlich, I. Gerasimov, J. Koopman
   C. Lavinge, S. Lehtola, F. März, M. Müller, F. Musil, H. Neugebauer
   J. Pisarek, P. Pracht, J. Seibert, P. Shushkov, S. Spicher, M. Stahn
   T. Strunk, J. Stückrath, T. Rose, and J. Unsleber
   
 * started run on 2021/10/08 at 07:26:57.169     

           -------------------------------------------------
          |                Calculation Setup                |
           -------------------------------------------------

          program call               : xtb xtbopt.xyz --sp --alpb thf -P 6
          hostname                   : seskscpg010.prim.scp
          coordinate file            : xtbopt.xyz
          omp threads                :                     6
          number of atoms            :                    96
          number of electrons        :                   252
          charge                     :                     0
          spin                       :                   0.0
          first test random number   :      0.60494264327927

   ID    Z sym.   atoms
    1    7 N      1, 11, 87, 90
    2    6 C      2-6, 10, 12-15, 23, 24, 28, 32, 34, 38, 44, 45, 49, 53, 55,
                  59, 65, 66, 70, 74, 76, 80, 86, 88, 89, 93
    3    1 H      7-9, 16-18, 20, 25-27, 29-31, 35-37, 39-41, 46-48, 50-52,
                  56-58, 60-62, 67-69, 71-73, 77-79, 81-85, 91, 92, 94-96
    4   77 Ir     19
    5    5 B      21, 42, 63
    6    8 O      22, 33, 43, 54, 64, 75

molecular fragmentation (1/2 indicates fragments):
111111111111111111111111111111111111111111111111111111111111111111111111
111111111111122222222222
# atoms in fragment 1/2:    85    11
 fragment masses (1/2) :      730.32       81.10
CMA distance (Bohr)    :   8.880
constraining FC (au)   :  0.0500

           -------------------------------------------------
          |                 G F N 2 - x T B                 |
           -------------------------------------------------

        Reference                      10.1021/acs.jctc.8b01176
      * Hamiltonian:
        H0-scaling (s, p, d)           1.850000    2.230000    2.230000
        zeta-weighting                 0.500000
      * Dispersion:
        s8                             2.700000
        a1                             0.520000
        a2                             5.000000
        s9                             5.000000
      * Repulsion:
        kExp                           1.500000    1.000000
        rExp                           1.000000
      * Coulomb:
        alpha                          2.000000
        third order                    shell-resolved
        anisotropic                    true
        a3                             3.000000
        a5                             4.000000
        cn-shift                       1.200000
        cn-exp                         4.000000
        max-rad                        5.000000

      * Solvation model:               ALPB
        Solvent                        thf
        Parameter file                 internal GFN2-xTB/ALPB
        Dielectric constant                7.6000E+00
        Reference state                gsolv [1 M gas/solution]
        Free energy shift                  5.3248E-03 Eh       3.3414E+00 kcal/mol
        Temperature                        2.9815E+02 K
        Density                            8.8300E-01 kg/L
        Solvent mass                       7.2106E+01 g/mol
        Interaction kernel             P16
        Born radius scaling (c1)           1.7311E+00
        Born radii integrator          GBOBC
        Born offset                        0.0000E+00 a0       0.0000E+00 AA
        H-bond correction              true
        Ion screening                  false
        Surface tension                    1.0000E-05 Eh       1.5569E+01 dyn/cm
        Grid points                               230 per atom
q/qsh data taken from xtbrestart
CAMM data taken from xtbrestart

          ...................................................
          :                      SETUP                      :
          :.................................................:
          :  # basis functions                 240          :
          :  # atomic orbitals                 239          :
          :  # shells                          143          :
          :  # electrons                       252          :
          :  max. iterations                   250          :
          :  Hamiltonian                  GFN2-xTB          :
          :  restarted?                       true          :
          :  GBSA solvation                   true          :
          :  PC potential                    false          :
          :  electronic temp.          300.0000000     K    :
          :  accuracy                    1.0000000          :
          :  -> integral cutoff          0.2500000E+02      :
          :  -> integral neglect         0.1000000E-07      :
          :  -> SCF convergence          0.1000000E-05 Eh   :
          :  -> wf. convergence          0.1000000E-03 e    :
          :  Broyden damping             0.4000000          :
          ...................................................

 iter      E             dE          RMSdq      gap      omega  full diag
   1   -139.7458381 -0.139746E+03  0.347E-05    0.89       0.0  T
   2   -139.7458381  0.276941E-09  0.639E-05    0.89     159.8  T
   3   -139.7458381 -0.317840E-09  0.184E-05    0.89     553.7  T

   *** convergence criteria satisfied after 3 iterations ***

         #    Occupation            Energy/Eh            Energy/eV
      -------------------------------------------------------------
         1        2.0000           -0.6701103             -18.2346
       ...           ...                  ...                  ...
       120        2.0000           -0.3600238              -9.7967
       121        2.0000           -0.3395538              -9.2397
       122        2.0000           -0.3242939              -8.8245
       123        2.0000           -0.3148758              -8.5682
       124        2.0000           -0.3138693              -8.5408
       125        2.0000           -0.3056597              -8.3174
       126        2.0000           -0.3019243              -8.2158 (HOMO)
       127                         -0.2691386              -7.3236 (LUMO)
       128                         -0.2412021              -6.5634
       129                         -0.2388069              -6.4983
       130                         -0.1981009              -5.3906
       131                         -0.1880191              -5.1163
       ...                                ...                  ...
       239                          3.7113674             100.9914
      -------------------------------------------------------------
                  HL-Gap            0.0327857 Eh            0.8921 eV
             Fermi-level           -0.2855222 Eh           -7.7695 eV

 SCC (total)                   0 d,  0 h,  0 min,  0.097 sec
 SCC setup                      ...        0 min,  0.003 sec (  3.007%)
 Dispersion                     ...        0 min,  0.002 sec (  2.230%)
 classical contributions        ...        0 min,  0.000 sec (  0.150%)
 integral evaluation            ...        0 min,  0.025 sec ( 25.724%)
 iterations                     ...        0 min,  0.031 sec ( 31.870%)
 molecular gradient             ...        0 min,  0.035 sec ( 36.400%)
 printout                       ...        0 min,  0.001 sec (  0.562%)

         :::::::::::::::::::::::::::::::::::::::::::::::::::::
         ::                     SUMMARY                     ::
         :::::::::::::::::::::::::::::::::::::::::::::::::::::
         :: total energy            -138.017387772345 Eh    ::
         :: total w/o Gsasa/hb      -137.978303689405 Eh    ::
         :: gradient norm              0.038388344552 Eh/a0 ::
         :: HOMO-LUMO gap              0.892143615091 eV    ::
         ::.................................................::
         :: SCC energy              -139.745838146567 Eh    ::
         :: -> isotropic ES            0.252448461820 Eh    ::
         :: -> anisotropic ES          0.016999706719 Eh    ::
         :: -> anisotropic XC          0.048021740021 Eh    ::
         :: -> dispersion             -0.129492524018 Eh    ::
         :: -> Gsolv                  -0.051926667961 Eh    ::
         ::    -> Gelec               -0.012842585021 Eh    ::
         ::    -> Gsasa               -0.041712873446 Eh    ::
         ::    -> Ghb                 -0.002696024939 Eh    ::
         ::    -> Gshift               0.005324815444 Eh    ::
         :: repulsion energy           1.721017179115 Eh    ::
         :: add. restraining           0.000000000000 Eh    ::
         :: total charge               0.000000001259 e     ::
         :::::::::::::::::::::::::::::::::::::::::::::::::::::

           -------------------------------------------------
          |                Property Printout                |
           -------------------------------------------------

    * Orbital Energies and Occupations

         #    Occupation            Energy/Eh            Energy/eV
      -------------------------------------------------------------
         1        2.0000           -0.6701103             -18.2346
       ...           ...                  ...                  ...
       114        2.0000           -0.3899351             -10.6107
       115        2.0000           -0.3825481             -10.4097
       116        2.0000           -0.3821879             -10.3999
       117        2.0000           -0.3807741             -10.3614
       118        2.0000           -0.3792130             -10.3189
       119        2.0000           -0.3689967             -10.0409
       120        2.0000           -0.3600238              -9.7967
       121        2.0000           -0.3395538              -9.2397
       122        2.0000           -0.3242939              -8.8245
       123        2.0000           -0.3148758              -8.5682
       124        2.0000           -0.3138693              -8.5408
       125        2.0000           -0.3056597              -8.3174
       126        2.0000           -0.3019243              -8.2158 (HOMO)
       127                         -0.2691386              -7.3236 (LUMO)
       128                         -0.2412021              -6.5634
       129                         -0.2388069              -6.4983
       130                         -0.1981009              -5.3906
       131                         -0.1880191              -5.1163
       132                         -0.1812855              -4.9330
       133                         -0.1499103              -4.0793
       134                         -0.1348228              -3.6687
       135                         -0.1201507              -3.2695
       136                         -0.1194582              -3.2506
       137                         -0.1082330              -2.9452
       ...                                ...                  ...
       239                          3.7113674             100.9914
      -------------------------------------------------------------
                  HL-Gap            0.0327857 Eh            0.8921 eV
             Fermi-level           -0.2855222 Eh           -7.7695 eV

     #   Z          covCN         q      C6AA      α(0)
     1   7 N        2.578    -0.110    23.423     7.188
     2   6 C        2.957     0.077    26.279     8.408
     3   6 C        2.918    -0.043    29.062     8.840
     4   6 C        2.923    -0.024    28.603     8.771
     5   6 C        2.915    -0.044    29.102     8.846
     6   6 C        2.893     0.048    26.925     8.507
     7   1 H        0.926     0.050     2.324     2.384
     8   1 H        0.926     0.053     2.281     2.362
     9   1 H        0.926     0.046     2.367     2.406
    10   6 C        2.957     0.074    26.337     8.418
    11   7 N        2.580    -0.107    23.372     7.180
    12   6 C        2.892     0.042    27.047     8.527
    13   6 C        2.916    -0.046    29.131     8.851
    14   6 C        2.922    -0.025    28.629     8.774
    15   6 C        2.919    -0.045    29.119     8.849
    16   1 H        0.926     0.046     2.375     2.410
    17   1 H        0.926     0.049     2.326     2.385
    18   1 H        0.926     0.075     2.031     2.228
    19  77 Ir       5.998    -0.179   391.014    36.567
    20   1 H        0.977     0.095     1.825     2.111
    21   5 B        2.629     0.401    16.047     6.769
    22   8 O        1.638    -0.410    21.044     6.192
    23   6 C        3.835     0.130    18.450     6.111
    24   6 C        3.755    -0.120    22.863     6.818
    25   1 H        0.925     0.052     2.293     2.368
    26   1 H        0.925     0.044     2.400     2.423
    27   1 H        0.925     0.050     2.314     2.379
    28   6 C        3.754    -0.109    22.648     6.786
    29   1 H        0.925     0.046     2.365     2.405
    30   1 H        0.925     0.042     2.426     2.436
    31   1 H        0.925     0.028     2.610     2.526
    32   6 C        3.840     0.131    18.438     6.108
    33   8 O        1.637    -0.405    20.957     6.179
    34   6 C        3.755    -0.120    22.849     6.816
    35   1 H        0.925     0.050     2.314     2.379
    36   1 H        0.925     0.044     2.390     2.417
    37   1 H        0.925     0.048     2.344     2.394
    38   6 C        3.754    -0.119    22.845     6.815
    39   1 H        0.925     0.047     2.358     2.401
    40   1 H        0.925     0.052     2.295     2.369
    41   1 H        0.925     0.044     2.395     2.420
    42   5 B        2.618     0.399    16.127     6.796
    43   8 O        1.637    -0.388    20.620     6.130
    44   6 C        3.835     0.129    18.470     6.114
    45   6 C        3.754    -0.125    22.956     6.832
    46   1 H        0.925     0.053     2.277     2.360
    47   1 H        0.925     0.055     2.256     2.349
    48   1 H        0.925     0.049     2.332     2.388
    49   6 C        3.755    -0.121    22.872     6.819
    50   1 H        0.925     0.048     2.350     2.397
    51   1 H        0.925     0.044     2.393     2.419
    52   1 H        0.925     0.052     2.291     2.367
    53   6 C        3.830     0.128    18.489     6.118
    54   8 O        1.637    -0.384    20.560     6.121
    55   6 C        3.755    -0.124    22.939     6.829
    56   1 H        0.925     0.054     2.271     2.356
    57   1 H        0.925     0.054     2.267     2.354
    58   1 H        0.925     0.047     2.354     2.399
    59   6 C        3.755    -0.121    22.878     6.820
    60   1 H        0.925     0.040     2.445     2.445
    61   1 H        0.925     0.052     2.298     2.370
    62   1 H        0.925     0.050     2.322     2.383
    63   5 B        2.621     0.400    16.105     6.789
    64   8 O        1.637    -0.383    20.538     6.117
    65   6 C        3.830     0.125    18.527     6.124
    66   6 C        3.755    -0.130    23.049     6.846
    67   1 H        0.925     0.058     2.219     2.330
    68   1 H        0.925     0.053     2.288     2.366
    69   1 H        0.925     0.049     2.331     2.387
    70   6 C        3.755    -0.128    23.017     6.841
    71   1 H        0.925     0.059     2.208     2.324
    72   1 H        0.925     0.050     2.326     2.385
    73   1 H        0.925     0.051     2.305     2.374
    74   6 C        3.827     0.127    18.496     6.120
    75   8 O        1.637    -0.383    20.532     6.116
    76   6 C        3.755    -0.123    22.915     6.826
    77   1 H        0.925     0.050     2.325     2.385
    78   1 H        0.925     0.053     2.285     2.364
    79   1 H        0.925     0.054     2.275     2.359
    80   6 C        3.755    -0.121    22.868     6.819
    81   1 H        0.925     0.039     2.460     2.453
    82   1 H        0.925     0.048     2.341     2.393
    83   1 H        0.925     0.053     2.279     2.361
    84   1 H        0.926     0.051     2.310     2.377
    85   1 H        0.926     0.048     2.340     2.392
    86   6 C        3.033     0.020    27.532     8.606
    87   7 N        1.917    -0.300    28.624     7.933
    88   6 C        3.056    -0.038    28.891     8.815
    89   6 C        3.154     0.069    26.181     8.368
    90   7 N        2.840    -0.014    21.517     6.889
    91   1 H        0.927     0.031     2.577     2.511
    92   1 H        0.926     0.028     2.613     2.528
    93   6 C        3.689    -0.067    21.992     6.712
    94   1 H        0.925     0.074     2.038     2.232
    95   1 H        0.924     0.071     2.074     2.252
    96   1 H        0.924     0.074     2.040     2.233

 Mol. C6AA /au·bohr⁶  :      96362.089651
 Mol. C8AA /au·bohr⁸  :    2557746.897480
 Mol. α(0) /au        :        479.616517


Wiberg/Mayer (AO) data.
largest (>0.10) Wiberg bond orders for each atom

 ---------------------------------------------------------------------------
     #   Z sym  total        # sym  WBO       # sym  WBO       # sym  WBO
 ---------------------------------------------------------------------------
     1   7 N    3.423 --     6 C    1.383     2 C    1.306    19 Ir   0.472
     2   6 C    3.979 --     3 C    1.348     1 N    1.306    10 C    1.093
     3   6 C    3.988 --     4 C    1.485     2 C    1.348     9 H    0.962
                             6 C    0.106
     4   6 C    3.985 --     3 C    1.485     5 C    1.378    84 H    0.969
     5   6 C    3.979 --     6 C    1.465     4 C    1.378     8 H    0.969
     6   6 C    3.978 --     5 C    1.465     1 N    1.383     7 H    0.957
                             3 C    0.106
     7   1 H    0.997 --     6 C    0.957
     8   1 H    0.997 --     5 C    0.969
     9   1 H    0.997 --     3 C    0.962
    10   6 C    3.979 --    15 C    1.351    11 N    1.304     2 C    1.093
    11   7 N    3.432 --    12 C    1.387    10 C    1.304    19 Ir   0.459
    12   6 C    3.973 --    13 C    1.457    11 N    1.387    18 H    0.947
                            15 C    0.106
    13   6 C    3.982 --    12 C    1.457    14 C    1.384    17 H    0.969
    14   6 C    3.983 --    15 C    1.480    13 C    1.384    85 H    0.969
    15   6 C    3.989 --    14 C    1.480    10 C    1.351    16 H    0.962
                            12 C    0.106
    16   1 H    0.997 --    15 C    0.962
    17   1 H    0.997 --    13 C    0.969
    18   1 H    0.994 --    12 C    0.947
    19  77 Ir   5.265 --    42 B    0.872    63 B    0.871    21 B    0.734
                            86 C    0.585    20 H    0.543     1 N    0.472
                            11 N    0.459
    20   1 H    0.989 --    19 Ir   0.543    86 C    0.338
    21   5 B    3.269 --    33 O    1.106    22 O    1.089    19 Ir   0.734
    22   8 O    2.189 --    21 B    1.089    23 C    0.944
    23   6 C    3.944 --    24 C    0.996    28 C    0.990    22 O    0.944
                            32 C    0.941
    24   6 C    3.994 --    23 C    0.996    26 H    0.984    27 H    0.983
                            25 H    0.983
    25   1 H    0.997 --    24 C    0.983
    26   1 H    0.997 --    24 C    0.984
    27   1 H    0.997 --    24 C    0.983
    28   6 C    3.997 --    23 C    0.990    31 H    0.986    29 H    0.984
                            30 H    0.984
    29   1 H    0.997 --    28 C    0.984
    30   1 H    0.998 --    28 C    0.984
    31   1 H    0.999 --    28 C    0.986
    32   6 C    3.941 --    38 C    0.997    34 C    0.990    33 O    0.941
                            23 C    0.941
    33   8 O    2.197 --    21 B    1.106    32 C    0.941
    34   6 C    3.994 --    32 C    0.990    36 H    0.984    37 H    0.982
                            35 H    0.982
    35   1 H    0.997 --    34 C    0.982
    36   1 H    0.997 --    34 C    0.984
    37   1 H    0.997 --    34 C    0.982
    38   6 C    3.994 --    32 C    0.997    41 H    0.984    39 H    0.983
                            40 H    0.983
    39   1 H    0.998 --    38 C    0.983
    40   1 H    0.997 --    38 C    0.983
    41   1 H    0.997 --    38 C    0.984
    42   5 B    3.327 --    43 O    1.107    54 O    1.102    19 Ir   0.872
    43   8 O    2.218 --    42 B    1.107    44 C    0.938
    44   6 C    3.938 --    45 C    0.996    49 C    0.990    53 C    0.939
                            43 O    0.938
    45   6 C    3.993 --    44 C    0.996    48 H    0.983    46 H    0.983
                            47 H    0.982
    46   1 H    0.997 --    45 C    0.983
    47   1 H    0.997 --    45 C    0.982
    48   1 H    0.997 --    45 C    0.983
    49   6 C    3.994 --    44 C    0.990    50 H    0.984    51 H    0.983
                            52 H    0.980
    50   1 H    0.997 --    49 C    0.984
    51   1 H    0.998 --    49 C    0.983
    52   1 H    0.997 --    49 C    0.980
    53   6 C    3.939 --    55 C    0.996    59 C    0.991    44 C    0.939
                            54 O    0.937
    54   8 O    2.222 --    42 B    1.102    53 C    0.937
    55   6 C    3.993 --    53 C    0.996    58 H    0.983    57 H    0.983
                            56 H    0.982
    56   1 H    0.997 --    55 C    0.982
    57   1 H    0.997 --    55 C    0.983
    58   1 H    0.997 --    55 C    0.983
    59   6 C    3.995 --    53 C    0.991    61 H    0.983    62 H    0.983
                            60 H    0.983
    60   1 H    0.998 --    59 C    0.983
    61   1 H    0.996 --    59 C    0.983
    62   1 H    0.997 --    59 C    0.983
    63   5 B    3.352 --    75 O    1.114    64 O    1.101    19 Ir   0.871
    64   8 O    2.220 --    63 B    1.101    65 C    0.940
    65   6 C    3.938 --    70 C    0.996    66 C    0.991    64 O    0.940
                            74 C    0.938
    66   6 C    3.993 --    65 C    0.991    69 H    0.983    68 H    0.983
                            67 H    0.979
    67   1 H    0.997 --    66 C    0.979
    68   1 H    0.997 --    66 C    0.983
    69   1 H    0.997 --    66 C    0.983
    70   6 C    3.993 --    65 C    0.996    72 H    0.984    73 H    0.982
                            71 H    0.982
    71   1 H    0.996 --    70 C    0.982
    72   1 H    0.996 --    70 C    0.984
    73   1 H    0.997 --    70 C    0.982
    74   6 C    3.936 --    76 C    0.996    80 C    0.991    75 O    0.938
                            65 C    0.938
    75   8 O    2.228 --    63 B    1.114    74 C    0.938
    76   6 C    3.993 --    74 C    0.996    77 H    0.983    78 H    0.982
                            79 H    0.982
    77   1 H    0.996 --    76 C    0.983
    78   1 H    0.997 --    76 C    0.982
    79   1 H    0.997 --    76 C    0.982
    80   6 C    3.995 --    74 C    0.991    81 H    0.984    83 H    0.984
                            82 H    0.983
    81   1 H    0.998 --    80 C    0.984
    82   1 H    0.997 --    80 C    0.983
    83   1 H    0.996 --    80 C    0.984
    84   1 H    0.996 --     4 C    0.969
    85   1 H    0.997 --    14 C    0.969
    86   6 C    3.938 --    88 C    1.520    87 N    1.265    19 Ir   0.585
                            20 H    0.338
    87   7 N    3.029 --    89 C    1.519    86 C    1.265    90 N    0.111
    88   6 C    3.935 --    86 C    1.520    90 N    1.193    91 H    0.967
                            89 C    0.116
    89   6 C    3.953 --    87 N    1.519    90 N    1.256    92 H    0.963
                            88 C    0.116
    90   7 N    3.636 --    89 C    1.256    88 C    1.193    93 C    1.000
                            87 N    0.111
    91   1 H    0.999 --    88 C    0.967
    92   1 H    0.999 --    89 C    0.963
    93   6 C    3.963 --    90 N    1.000    94 H    0.979    95 H    0.974
                            96 H    0.973
    94   1 H    0.994 --    93 C    0.979
    95   1 H    0.995 --    93 C    0.974
    96   1 H    0.994 --    93 C    0.973
 ---------------------------------------------------------------------------

Topologies differ in total number of bonds
Writing topology from bond orders to xtbtopo.mol

molecular dipole:
                 x           y           z       tot (Debye)
 q only:        0.471       0.247       0.629
   full:       -0.398       0.485       0.473       1.997
molecular quadrupole (traceless):
                xx          xy          yy          xz          yz          zz
 q only:       -0.452      -1.379     -14.475       7.790       4.489      14.927
  q+dip:       -0.295      -1.197     -17.872       8.843       7.507      18.167
   full:       -2.900      -0.314     -16.274       7.045       4.320      19.174


           -------------------------------------------------
          | TOTAL ENERGY             -138.017387772345 Eh   |
          | GRADIENT NORM               0.038388344552 Eh/α |
          | HOMO-LUMO GAP               0.892143615091 eV   |
           -------------------------------------------------

------------------------------------------------------------------------
 * finished run on 2021/10/08 at 07:26:57.304     
------------------------------------------------------------------------
 total:
 * wall-time:     0 d,  0 h,  0 min,  0.135 sec
 *  cpu-time:     0 d,  0 h,  0 min,  0.785 sec
 * ratio c/w:     5.831 speedup
 SCF:
 * wall-time:     0 d,  0 h,  0 min,  0.098 sec
 *  cpu-time:     0 d,  0 h,  0 min,  0.586 sec
 * ratio c/w:     5.972 speedup

