96
 energy: -138.017387772251 gnorm: 0.000185189536 xtb: 6.4.0 (f63f532)
N        -0.88198730169890   -2.02434184069935   -0.36071476462379
C        -2.16163534277100   -1.61481855359749   -0.45542244514694
C        -3.04535973747977   -2.22077000095607   -1.35810254989707
C        -2.61037660674354   -3.25295993976985   -2.15926054427716
C        -1.28572225618441   -3.66997304140388   -2.04493450331570
C        -0.47302313014431   -3.02374675983068   -1.13856305619423
H         0.56164004455652   -3.31287100822718   -1.01751530143003
H        -0.90137894648236   -4.47662116199021   -2.64806248333465
H        -4.06561909383205   -1.88301175891143   -1.43648296247166
C        -2.55116244034342   -0.51714667357420    0.41858814683951
N        -1.58010898463479    0.00903527500876    1.19337722349331
C        -1.89039127667396    1.01195667266951    2.01000770349036
C        -3.15700010846442    1.54970739392109    2.11272526498301
C        -4.16951736546272    1.02185168611868    1.31600443423294
C        -3.85804454497076   -0.01468636248476    0.46383441332485
H        -4.62853450470174   -0.43776000006927   -0.15920083601709
H        -3.35159832980316    2.35747305066737    2.79996755434592
H        -1.07066238228904    1.39908469607950    2.59531848337736
Ir        0.42149999999996   -0.81649999999986    0.91330000000001
H         0.87259999999999   -2.23029999999995    1.54049999999992
B         0.41768508808239    0.60521506715875   -0.61168164955434
O        -0.20141405685172    0.31401159891297   -1.81536151903361
C        -0.27738031864219    1.48954505483758   -2.62697839032974
C         0.00475570352417    1.12959787541464   -4.08370355466457
H         0.93146607064260    0.57159251104310   -4.16742423853924
H         0.06395659153611    2.03141036772378   -4.68785343739716
H        -0.80279178583481    0.50637127303337   -4.46043315395425
C        -1.71176437716449    2.02442516059650   -2.50582635489454
H        -1.85944023016315    2.90066474335049   -3.13020098408608
H        -2.40126366614343    1.24330172283089   -2.82019070055568
H        -1.93146203723387    2.26910172103833   -1.46844299512684
C         0.77883321877926    2.43169062659873   -1.96200246375318
O         0.86788662387800    1.90789824055674   -0.63072480088836
C         2.17209802518291    2.28413280467285   -2.58654111457152
H         2.47330618309107    1.24049237471905   -2.53708700070933
H         2.18937306407425    2.64129632637747   -3.61229435169553
H         2.88065318245047    2.86174170816394   -1.99737664934359
C         0.39200348851272    3.90895088973204   -1.91999242832268
H        -0.50259761066179    4.06583715354892   -1.32542566590854
H         1.20254700309668    4.47611143962184   -1.46849387552916
H         0.22630933648613    4.27818036601192   -2.92904025152560
B         1.57231273251929    0.62695079863348    1.90128404721131
O         2.94708871103653    0.72952317488996    1.94512134590855
C         3.32917886107164    2.00936931414928    2.46787077322848
C         4.57550184208175    1.86839579800210    3.34068625090271
H         4.44305827779943    1.09640483640544    4.09128219250194
H         5.41933724980091    1.58889509346549    2.71518783358753
H         4.79885998506544    2.81472696594024    3.82618825808167
C         3.64658046443352    2.89788493672841    1.25902915714754
H         3.93834261217001    3.89898031881767    1.56306776736579
H         4.46239515445580    2.44448309048654    0.70048619577602
H         2.77589010160935    2.93045730208510    0.60897421537044
C         2.03875902186504    2.46605734730855    3.22676185635957
O         1.01657352932366    1.67388332471332    2.61036281199039
C         1.69317997957159    3.94650964430967    3.07816853942980
H         1.48336288421696    4.18611247969104    2.04125500856148
H         0.80438794381188    4.16624392139887    3.66477259801710
H         2.51329294593797    4.56146285999524    3.43932138024477
C         2.05887334836460    2.09832027850828    4.71654950138529
H         2.27586296842826    1.03972642358825    4.82929985269306
H         2.79326927523558    2.68859133311904    5.25620383826082
H         1.07302925074331    2.28867001031007    5.13480515063459
B         2.27819999999979   -1.33089999999990    0.17410000000017
O         3.09229566745545   -2.32430107931943    0.68786965362856
C         4.38210128885653   -2.28763428166618    0.06591212260163
C         5.32217453313884   -1.58349993174857    1.05087559607675
H         4.90142130826980   -0.61447306283385    1.30389658192822
H         5.37103659237867   -2.17510160520392    1.96157122357152
H         6.32257405519186   -1.47687218245941    0.64284582377506
C         4.87572404890415   -3.71469499241389   -0.17354856080747
H         5.01117176978877   -4.20393591082803    0.78743065005494
H         5.82679473000394   -3.69811727488595   -0.69854514342629
H         4.15610487378734   -4.29146408088319   -0.74488527931963
C         4.11613958210471   -1.44960150878659   -1.23308805466411
O         2.88278955881213   -0.77986998802148   -0.93507665030708
C         5.18790558011733   -0.40937684316213   -1.55519192902863
H         6.15473370939941   -0.88902699526479   -1.68091677581270
H         4.92471551080815    0.09910956409451   -2.47931688056199
H         5.24346274992299    0.33175558230832   -0.76552429615035
C         3.87190146940341   -2.31846389637095   -2.47494634596498
H         3.08648474740392   -3.04287235760364   -2.27759192151019
H         3.53793748732486   -1.67710145450052   -3.28715260950846
H         4.77950166139680   -2.83134010664921   -2.77887264599046
H        -3.28089480910701   -3.72617114577462   -2.86057444333942
H        -5.17482363204818    1.41296600025892    1.36356597735563
C         0.23589999999951   -1.68140000000046    2.96030000000078
N        -1.03748934132135   -2.00198155235595    3.34736115220513
C         1.03143419545185   -1.61735659494031    4.07580774517073
C        -1.00989606411683   -2.08365167708786    4.65197332111432
N         0.22291867497947   -1.85814618275138    5.15581476846380
H         2.07878099652680   -1.42443415433869    4.17327522591760
H        -1.86095852101248   -2.30549501893882    5.26721901247675
C         0.62434863742197   -1.88105855403330    6.53521301980177
H        -0.24500640536856   -2.08754936631064    7.15674846151221
H         1.04881040699635   -0.91698782819130    6.82112482441568
H         1.37460848912562   -2.65726101235285    6.69796923271439
