119
 energy: -172.731752462381 gnorm: 0.000246304593 xtb: 6.4.1 (1a32961)
N        -0.96510000000000   -2.11529999999999   -0.24090000000000
C        -2.24700000000002   -1.69840000000000   -0.36220000000000
C        -3.14040000000001   -2.36820000000000   -1.21199999999999
C        -2.70220000000001   -3.47559999999999   -1.93050000000000
C        -1.37780000000001   -3.89879999999998   -1.78760000000001
C        -0.54290000000001   -3.18669999999997   -0.93510000000000
H         0.49810000000000   -3.45630000000000   -0.78940000000001
H        -0.99570000000001   -4.76029999999999   -2.32770000000000
H        -4.16500000000001   -2.02890000000000   -1.31830000000000
C        -2.62129999999999   -0.50950000000001    0.44100000000000
N        -1.62600000000001    0.07330000000001    1.16020000000001
C        -1.89680000000001    1.15239999999999    1.91690000000001
C        -3.17230000000001    1.70329999999998    1.99650000000003
C        -4.20510000000001    1.11739999999998    1.26269999999999
C        -3.92610000000004    0.00250000000001    0.47820000000002
H        -4.71960000000001   -0.46420000000000   -0.09520000000000
H        -3.34629999999999    2.57509999999999    2.62070000000001
H        -1.04450000000000    1.57420000000000    2.43690000000001
Ir        0.42150000000000   -0.81650000000000    0.91330000000000
H         0.87260000000000   -2.23030000000000    1.54050000000000
B         0.50669999999999    0.41560000000000   -0.81540000000000
O         0.19500000000000   -0.04700000000000   -2.09150000000000
C         0.00649999999999    1.10040000000000   -2.95430000000000
C         0.49020000000000    0.74740000000000   -4.35780000000000
H         1.51610000000000    0.37380000000000   -4.33700000000000
H         0.44729999999998    1.62240000000001   -5.01669999999999
H        -0.14740000000001   -0.03389999999998   -4.78430000000000
C        -1.50119999999999    1.39559999999999   -2.96670000000000
H        -1.75370000000001    2.21460000000002   -3.64850000000000
H        -2.03200000000001    0.49450000000000   -3.28930000000000
H        -1.85170000000000    1.65210000000001   -1.96219999999999
C         0.84229999999999    2.20670000000000   -2.22039999999999
O         0.75200000000000    1.78260000000000   -0.83690000000000
C         2.32929999999998    2.18619999999999   -2.59899999999999
H         2.74129999999999    1.18500000000001   -2.45750000000000
H         2.48870000000000    2.51300000000001   -3.63180000000000
H         2.87199999999999    2.86270000000000   -1.93200000000000
C         0.28440000000002    3.62289999999999   -2.33659999999999
H        -0.72650000000000    3.69040000000001   -1.92910000000000
H         0.92129999999999    4.31480000000000   -1.77609999999998
H         0.26429999999998    3.94809999999999   -3.38319999999999
B         1.56300000000000    0.60960000000000    1.84840000000000
O         2.92780000000000    0.55230000000000    2.15020000000000
C         3.36330000000001    1.88660000000001    2.50259999999998
C         4.53140000000001    1.78590000000000    3.47739999999998
H         4.27910000000000    1.16090000000000    4.33690000000000
H         5.39390000000000    1.33790000000000    2.97340000000000
H         4.82390000000000    2.77870000000000    3.83820000000000
C         3.79700000000000    2.56850000000001    1.19670000000002
H         4.20020000000000    3.57090000000001    1.37680000000000
H         4.56740000000000    1.95560000000000    0.72110000000000
H         2.95240000000001    2.63260000000000    0.50539999999999
C         2.05040000000000    2.50090000000000    3.09320000000000
O         1.03749999999999    1.81620000000000    2.31910000000000
C         1.89100000000000    4.00450000000000    2.88650000000000
H         1.87290000000000    4.25440000000000    1.82410000000001
H         0.94940000000001    4.34260000000000    3.33170000000001
H         2.71080000000001    4.55150000000001    3.36630000000001
C         1.82470000000000    2.13200000000001    4.56520000000001
H         1.92610000000000    1.05329999999999    4.71320000000000
H         2.52610000000000    2.65280000000000    5.22540000000000
H         0.80630000000000    2.41579999999999    4.84899999999999
B         2.27820000000000   -1.33089999999999    0.17410000000000
O         2.89460000000000   -2.57740000000000    0.38449999999999
C         4.26930000000000   -2.48200000000000   -0.07210000000002
C         5.10900000000000   -2.05379999999999    1.14009999999997
H         4.76350000000000   -1.08740000000000    1.51750000000000
H         4.98050000000000   -2.79470000000000    1.93589999999998
H         6.17420000000000   -1.99290000000000    0.89299999999999
C         4.71950000000000   -3.84660000000000   -0.58470000000002
H         4.75279999999999   -4.56129999999999    0.24419999999999
H         5.72330000000000   -3.78369999999999   -1.02010000000000
H         4.03500000000000   -4.23600000000000   -1.34169999999999
C         4.16439999999998   -1.36219999999999   -1.16300000000003
O         3.08519999999998   -0.55029999999999   -0.65400000000000
C         5.40720000000001   -0.48870000000000   -1.31550000000002
H         6.27320000000001   -1.09009999999999   -1.61530000000001
H         5.23300000000000    0.26930000000000   -2.08590000000001
H         5.64270000000001    0.02650000000001   -0.38240000000000
C         3.71800000000002   -1.89829999999999   -2.53109999999998
H         2.82529999999998   -2.52159999999999   -2.42740000000001
H         3.46089999999999   -1.05249999999998   -3.17550000000000
H         4.50570000000000   -2.48289999999999   -3.01790000000002
H        -3.38500000000002   -4.00129999999998   -2.59310000000000
H        -5.21400000000000    1.52079999999997    1.29960000000001
C         0.23589999999998   -1.68140000000001    2.96029999999997
C        -1.01990722553346   -2.12538228469289    3.36386580083109
C         1.27182098326122   -1.62055281524348    3.91588404579171
C        -1.23688508742214   -2.45166782842332    4.70690448086468
H        -1.83087296387434   -2.25002340021273    2.65963313840758
C         1.08165651477713   -1.93713850903717    5.25289876287676
H         2.25746139839479   -1.33352113431165    3.58044641839335
C        -0.18771297084442   -2.36427161043063    5.62775260955030
C        -2.32511534364877   -2.95875055579028    5.44145425068296
H         1.88609501193203   -1.89539681233226    5.97218337363234
O        -0.58174865418116   -2.79133927626883    6.83521432473786
C        -1.87944498509063   -3.16069635428383    6.72970329675097
H        -3.31784254921402   -3.17297685809978    5.09037483780065
B        -2.59265734193983   -3.81064279687308    7.94454599746302
O        -1.93825801189793   -4.29737323905363    9.08287980295058
O        -3.97276074122819   -4.04511820900476    8.02240075066893
C        -2.86977226349195   -5.04473989142021    9.85023716872764
C        -4.26790796955856   -4.53491406108550    9.32332252299540
C        -2.62913516548738   -6.53318603033048    9.52906255104179
C        -2.61554273097292   -4.80913223982339   11.34341264974618
C        -5.35466832270288   -5.61258370181905    9.23344388697445
C        -4.80363766472127   -3.34569424453924   10.14547455328491
H        -1.57915745857448   -6.76915905521542    9.73812466562933
H        -2.81366422134201   -6.72502746227231    8.46592743979147
H        -3.27017377211082   -7.17649695824913   10.14099198609381
H        -1.64159258279724   -5.23647707666579   11.60847214766243
H        -3.39295385261860   -5.29905796358416   11.93823961325753
H        -2.59149549311298   -3.74028954384895   11.57724114578211
H        -5.51606590086588   -6.06465654540243   10.21730008526625
H        -5.08242175041331   -6.38929353004155    8.51228828476899
H        -6.28823271036863   -5.14727490197564    8.89676364119290
H        -5.11478492847690   -3.66712499166254   11.14485313325453
H        -5.66583666527542   -2.91848308823814    9.62021442006015
H        -4.03603840720367   -2.56784111694144   10.22628872611894
