119
 energy: -172.737541597798 gnorm: 0.094186105439 xtb: 6.4.1 (1a32961)
N        -0.96510000000000   -2.11529999999999   -0.24090000000000
C        -2.24700000000002   -1.69840000000000   -0.36220000000000
C        -3.14040000000001   -2.36820000000000   -1.21199999999999
C        -2.70220000000001   -3.47559999999999   -1.93050000000000
C        -1.37780000000001   -3.89879999999998   -1.78760000000001
C        -0.54290000000001   -3.18669999999997   -0.93510000000000
H         0.49810000000000   -3.45630000000000   -0.78940000000001
H        -0.99570000000001   -4.76029999999999   -2.32770000000000
H        -4.16500000000001   -2.02890000000000   -1.31830000000000
C        -2.62129999999999   -0.50950000000001    0.44100000000000
N        -1.62600000000001    0.07330000000001    1.16020000000001
C        -1.89680000000001    1.15239999999999    1.91690000000001
C        -3.17230000000001    1.70329999999998    1.99650000000003
C        -4.20510000000001    1.11739999999998    1.26269999999999
C        -3.92610000000004    0.00250000000001    0.47820000000002
H        -4.71960000000001   -0.46420000000000   -0.09520000000000
H        -3.34629999999999    2.57509999999999    2.62070000000001
H        -1.04450000000000    1.57420000000000    2.43690000000001
Ir        0.42150000000000   -0.81650000000000    0.91330000000000
H         0.87260000000000   -2.23030000000000    1.54050000000000
B         0.50669999999999    0.41560000000000   -0.81540000000000
O         0.19500000000000   -0.04700000000000   -2.09150000000000
C         0.00649999999999    1.10040000000000   -2.95430000000000
C         0.49020000000000    0.74740000000000   -4.35780000000000
H         1.51610000000000    0.37380000000000   -4.33700000000000
H         0.44729999999998    1.62240000000001   -5.01669999999999
H        -0.14740000000001   -0.03389999999998   -4.78430000000000
C        -1.50119999999999    1.39559999999999   -2.96670000000000
H        -1.75370000000001    2.21460000000002   -3.64850000000000
H        -2.03200000000001    0.49450000000000   -3.28930000000000
H        -1.85170000000000    1.65210000000001   -1.96219999999999
C         0.84229999999999    2.20670000000000   -2.22039999999999
O         0.75200000000000    1.78260000000000   -0.83690000000000
C         2.32929999999998    2.18619999999999   -2.59899999999999
H         2.74129999999999    1.18500000000001   -2.45750000000000
H         2.48870000000000    2.51300000000001   -3.63180000000000
H         2.87199999999999    2.86270000000000   -1.93200000000000
C         0.28440000000002    3.62289999999999   -2.33659999999999
H        -0.72650000000000    3.69040000000001   -1.92910000000000
H         0.92129999999999    4.31480000000000   -1.77609999999998
H         0.26429999999998    3.94809999999999   -3.38319999999999
B         1.56300000000000    0.60960000000000    1.84840000000000
O         2.92780000000000    0.55230000000000    2.15020000000000
C         3.36330000000001    1.88660000000001    2.50259999999998
C         4.53140000000001    1.78590000000000    3.47739999999998
H         4.27910000000000    1.16090000000000    4.33690000000000
H         5.39390000000000    1.33790000000000    2.97340000000000
H         4.82390000000000    2.77870000000000    3.83820000000000
C         3.79700000000000    2.56850000000001    1.19670000000002
H         4.20020000000000    3.57090000000001    1.37680000000000
H         4.56740000000000    1.95560000000000    0.72110000000000
H         2.95240000000001    2.63260000000000    0.50539999999999
C         2.05040000000000    2.50090000000000    3.09320000000000
O         1.03749999999999    1.81620000000000    2.31910000000000
C         1.89100000000000    4.00450000000000    2.88650000000000
H         1.87290000000000    4.25440000000000    1.82410000000001
H         0.94940000000001    4.34260000000000    3.33170000000001
H         2.71080000000001    4.55150000000001    3.36630000000001
C         1.82470000000000    2.13200000000001    4.56520000000001
H         1.92610000000000    1.05329999999999    4.71320000000000
H         2.52610000000000    2.65280000000000    5.22540000000000
H         0.80630000000000    2.41579999999999    4.84899999999999
B         2.27820000000000   -1.33089999999999    0.17410000000000
O         2.89460000000000   -2.57740000000000    0.38449999999999
C         4.26930000000000   -2.48200000000000   -0.07210000000002
C         5.10900000000000   -2.05379999999999    1.14009999999997
H         4.76350000000000   -1.08740000000000    1.51750000000000
H         4.98050000000000   -2.79470000000000    1.93589999999998
H         6.17420000000000   -1.99290000000000    0.89299999999999
C         4.71950000000000   -3.84660000000000   -0.58470000000002
H         4.75279999999999   -4.56129999999999    0.24419999999999
H         5.72330000000000   -3.78369999999999   -1.02010000000000
H         4.03500000000000   -4.23600000000000   -1.34169999999999
C         4.16439999999998   -1.36219999999999   -1.16300000000003
O         3.08519999999998   -0.55029999999999   -0.65400000000000
C         5.40720000000001   -0.48870000000000   -1.31550000000002
H         6.27320000000001   -1.09009999999999   -1.61530000000001
H         5.23300000000000    0.26930000000000   -2.08590000000001
H         5.64270000000001    0.02650000000001   -0.38240000000000
C         3.71800000000002   -1.89829999999999   -2.53109999999998
H         2.82529999999998   -2.52159999999999   -2.42740000000001
H         3.46089999999999   -1.05249999999998   -3.17550000000000
H         4.50570000000000   -2.48289999999999   -3.01790000000002
H        -3.38500000000002   -4.00129999999998   -2.59310000000000
H        -5.21400000000000    1.52079999999997    1.29960000000001
C         0.23589999999998   -1.68140000000001    2.96029999999997
C        -1.01990722553346   -2.12538228469289    3.36386580083109
C         1.27182098326122   -1.62055281524348    3.91588404579171
C        -1.23688508742214   -2.45166782842332    4.70690448086468
H        -1.83087296387434   -2.25002340021273    2.65963313840758
C         1.08165651477713   -1.93713850903717    5.25289876287676
H         2.25746139839479   -1.33352113431165    3.58044641839335
C        -0.18771297084442   -2.36427161043063    5.62775260955030
C        -2.32511534364877   -2.95875055579028    5.44145425068296
H         1.88609501193203   -1.89539681233226    5.97218337363234
O        -0.58174865418116   -2.79133927626883    6.83521432473786
C        -1.87944498509063   -3.16069635428383    6.72970329675097
H        -3.31784254921402   -3.17297685809978    5.09037483780065
B        -2.59265734193983   -3.81064279687308    7.94454599746302
O        -1.93825801189793   -4.29737323905363    9.08287980295058
O        -3.97276074122819   -4.04511820900476    8.02240075066893
C        -2.86977226349195   -5.04473989142021    9.85023716872764
C        -4.26790796955856   -4.53491406108550    9.32332252299540
C        -2.62913516548738   -6.53318603033048    9.52906255104179
C        -2.61554273097292   -4.80913223982339   11.34341264974618
C        -5.35466832270288   -5.61258370181905    9.23344388697445
C        -4.80363766472127   -3.34569424453924   10.14547455328491
H        -1.57915745857448   -6.76915905521542    9.73812466562933
H        -2.81366422134201   -6.72502746227231    8.46592743979147
H        -3.27017377211082   -7.17649695824913   10.14099198609381
H        -1.64159258279724   -5.23647707666579   11.60847214766243
H        -3.39295385261860   -5.29905796358416   11.93823961325753
H        -2.59149549311298   -3.74028954384895   11.57724114578211
H        -5.51606590086588   -6.06465654540243   10.21730008526625
H        -5.08242175041331   -6.38929353004155    8.51228828476899
H        -6.28823271036863   -5.14727490197564    8.89676364119290
H        -5.11478492847690   -3.66712499166254   11.14485313325453
H        -5.66583666527542   -2.91848308823814    9.62021442006015
H        -4.03603840720367   -2.56784111694144   10.22628872611894
119
 energy: -172.746367176157 gnorm: 0.052870127290 xtb: 6.4.1 (1a32961)
N        -0.96257805893051   -2.10148371705775   -0.24889594969499
C        -2.24076151803373   -1.69087753725045   -0.36275482654789
C        -3.13466856804876   -2.36226176814497   -1.20630379416050
C        -2.70391725883079   -3.46384964306829   -1.92187194372247
C        -1.38391341468644   -3.88292043377815   -1.78186130028918
C        -0.55441027839023   -3.16872843532783   -0.93902209116235
H         0.47948224915068   -3.44839511788346   -0.78950951272880
H        -1.00724282260758   -4.74292852258036   -2.31725911420478
H        -4.15516472599541   -2.02677945244501   -1.31124826220510
C        -2.61255757774142   -0.51361091995402    0.43724817713313
N        -1.62039126825790    0.06580014637093    1.14983179414956
C        -1.89813096690589    1.13831257837731    1.89500773576172
C        -3.16475094127636    1.68875442005173    1.98217757978383
C        -4.19630930411639    1.10472441335587    1.25542337327876
C        -3.91526074331659   -0.00229029195179    0.47559194448075
H        -4.70680224384584   -0.46502855280674   -0.09387184207296
H        -3.33952594474246    2.55270252136821    2.60821817883576
H        -1.05453397293206    1.55709402410044    2.42283843298043
Ir        0.42150000000000   -0.81650000000000    0.91330000000000
H         0.87260000000000   -2.23030000000000    1.54050000000000
B         0.48968029267217    0.42427262341785   -0.79073925136705
O         0.17655485874602   -0.03518216123814   -2.06381170827248
C         0.01124544600215    1.09640349129963   -2.94472591305324
C         0.49045587235664    0.74659240319143   -4.34973237403929
H         1.50950514329671    0.37009840127835   -4.32811602917128
H         0.44567450322172    1.62167098821786   -4.99876460615684
H        -0.14800965770176   -0.02967578206671   -4.77010576464633
C        -1.49322498574233    1.39843167923275   -2.97049283135780
H        -1.73276187672130    2.21137891523321   -3.65433045337364
H        -2.02313033251948    0.50112191349190   -3.29013998880164
H        -1.83975216067077    1.65291257363272   -1.96870677466157
C         0.83338896411779    2.20629338185873   -2.21360679799335
O         0.75572413825168    1.77992686346244   -0.83640129792173
C         2.31634888623741    2.18965693073081   -2.60033161096049
H         2.72051836345287    1.19051176377937   -2.45026310190916
H         2.46900964864378    2.51124547785576   -3.62991490578560
H         2.85841612173836    2.86408126494718   -1.93843078128389
C         0.28189835518595    3.62256613384729   -2.34055954960728
H        -0.72156996491602    3.69117794628467   -1.92860341799673
H         0.92102878007412    4.30620768480403   -1.78324618160985
H         0.26444676902450    3.93572878265981   -3.38459415895786
B         1.56429701821804    0.61981185803327    1.85108156097566
O         2.92445814431718    0.56681355290839    2.13447020074806
C         3.36305550703574    1.88758059554816    2.50839476473951
C         4.53246915885269    1.78896682073816    3.47974352085231
H         4.27950440577301    1.16126045888746    4.33014393095074
H         5.38756323452364    1.34408829815610    2.97251197650649
H         4.81583488085954    2.77905769249909    3.83587993212250
C         3.79943857390937    2.57405058494880    1.20954114079545
H         4.20108664274183    3.56972141103863    1.39291432793341
H         4.56326793276408    1.96183641030567    0.73303610518963
H         2.95152552501817    2.62627255739824    0.52783774548434
C         2.05263605628619    2.50535407942106    3.08875173753015
O         1.04043367502362    1.81066678799841    2.33378840732697
C         1.89406713406627    4.00761372059283    2.88817186920588
H         1.86931408371831    4.25105172031321    1.82979465173319
H         0.95627144803257    4.33676244880074    3.33408033445315
H         2.71418530860901    4.54407364003158    3.36482271364863
C         1.83075976019789    2.14092954180646    4.56115776395436
H         1.93096392104546    1.06519842688156    4.70009360860341
H         2.53149268563767    2.66227011968339    5.21098839488336
H         0.81617415129080    2.41963278955456    4.84506685658513
B         2.27820000000001   -1.33089999999998    0.17410000000000
O         2.90095905439794   -2.56179696012736    0.39117232013914
C         4.26568159620991   -2.48376557412182   -0.07663700146380
C         5.10967285844134   -2.05865403955157    1.12968644520006
H         4.75364231492788   -1.09832836213106    1.50039339399922
H         4.97765479082068   -2.79372790082615    1.92283397474873
H         6.16762153394396   -1.99873022511993    0.87852898765969
C         4.72015387388687   -3.84623733631029   -0.58629861206937
H         4.74933392610542   -4.55073035434270    0.24367527192842
H         5.71804580629931   -3.77533981623525   -1.01838102507189
H         4.03454074990243   -4.23351113080840   -1.33523147034912
C         4.16658908741175   -1.36120524062615   -1.15756029291986
O         3.07485880037513   -0.56399067270859   -0.66166328368403
C         5.40985923341675   -0.49273246768662   -1.31524360830501
H         6.26629699304114   -1.09814616231931   -1.61102960837680
H         5.23140382313934    0.25856109012928   -2.08337661540289
H         5.63746909184728    0.02174400257020   -0.38612317958784
C         3.72873891261972   -1.90036697148155   -2.52565821439136
H         2.83642617627991   -2.51542859178891   -2.41687893567314
H         3.47133669494766   -1.05873276904655   -3.16736277615887
H         4.51812792673093   -2.47787693164552   -3.00399953932517
H        -3.38292486844407   -3.98869568747845   -2.58034256140280
H        -5.20017198102330    1.50668021678277    1.29526145083060
C         0.23589999999997   -1.68140000000000    2.96029999999997
C        -1.01693704464833   -2.12382308477822    3.36009039069809
C         1.27052142941635   -1.62050813190170    3.91777081059198
C        -1.23733733842400   -2.45103243077775    4.70403235901255
H        -1.82682896968292   -2.24865573912662    2.65553889302588
C         1.08415322525399   -1.93485708326700    5.24991813391818
H         2.25485312970208   -1.33328202525926    3.58201580197335
C        -0.18244632927086   -2.36236867579914    5.62899522789602
C        -2.33121953150841   -2.96305192013514    5.44882759971359
H         1.88871126329011   -1.89229608925254    5.96740136184686
O        -0.57981588845807   -2.79243605899486    6.84243206823689
C        -1.88649786099036   -3.16502539396808    6.73364373626775
H        -3.32142301243899   -3.17669880226342    5.09854924460414
B        -2.59704898480152   -3.81386609599953    7.94749999175380
O        -1.94669948976814   -4.29103235176507    9.06973068325737
O        -3.95943165718236   -4.04306896717947    8.02132780394660
C        -2.87303218026692   -5.04429866085907    9.84957792621750
C        -4.26686800823619   -4.53520314487803    9.32588727048847
C        -2.63027801853457   -6.52855690014922    9.52976415164478
C        -2.61611143323534   -4.80761319270768   11.33836180699890
C        -5.35120347726803   -5.60937345839210    9.23306146496850
C        -4.80227481375321   -3.34851737333146   10.14366460437308
H        -1.58650184999247   -6.76283330201499    9.73684973058750
H        -2.81361456446989   -6.72148052568834    8.47338785146961
H        -3.26495297664245   -7.16897972766154   10.13758520090133
H        -1.64809874480604   -5.23120686333402   11.60235521367764
H        -3.38687418352354   -5.29448065582613   11.93200685498404
H        -2.59267707741501   -3.74614288045105   11.57188678202947
H        -5.51387737839518   -6.05979798455239   10.20975878746388
H        -5.08130827295464   -6.38150798625660    8.51706078764176
H        -6.27902819815744   -5.14809181235040    8.89791778646750
H        -5.11294295213827   -3.66597176754910   11.13603812515254
H        -5.65872010969616   -2.92328369857567    9.62141561855910
H        -4.04035705822540   -2.57438452212011   10.22539426265774
119
 energy: -172.748607348157 gnorm: 0.036231095909 xtb: 6.4.1 (1a32961)
N        -0.95641617500339   -2.09440428507430   -0.25450417997985
C        -2.23245878590122   -1.68495817463035   -0.36412940034939
C        -3.13093937829552   -2.35483450241029   -1.20322563752985
C        -2.70803855282761   -3.45356410795017   -1.91944160245809
C        -1.38846989478228   -3.87313295907061   -1.78231404719022
C        -0.55983096773045   -3.15944602835195   -0.94349833043283
H         0.47247308294648   -3.44333431244708   -0.80073701230084
H        -1.01727715531621   -4.73268393875123   -2.31576011310329
H        -4.14998826813301   -2.02015369246172   -1.30107460139124
C        -2.60086283933932   -0.51639152506544    0.43156013428655
N        -1.61152025332402    0.05796416580512    1.14559962781803
C        -1.89494014739093    1.12553868054377    1.88477833686913
C        -3.15680524183222    1.67789506086479    1.97345339892135
C        -4.18887144357294    1.09462308687427    1.24700774164223
C        -3.90394364899944   -0.00650216237141    0.46800361402535
H        -4.69284464144485   -0.47021278549805   -0.09987810667804
H        -3.33192036208112    2.53829120990477    2.59864037586135
H        -1.05637259681158    1.54930085111125    2.41337166318499
Ir        0.42150000000001   -0.81650000000000    0.91330000000000
H         0.87260000000000   -2.23030000000000    1.54050000000000
B         0.49249428570786    0.43421221541356   -0.76897258328351
O         0.15695469965737   -0.02610630946304   -2.03473502811722
C         0.00782401523592    1.09271858624673   -2.92608842486984
C         0.49207049626201    0.73760786248664   -4.32846037849898
H         1.50740546658744    0.35754506910681   -4.30760305458970
H         0.44743827554354    1.61581457060986   -4.96769101378557
H        -0.15036471547954   -0.03250320050621   -4.74741476978296
C        -1.49472959017003    1.40474616878715   -2.97177011673214
H        -1.71563533106756    2.21390478047732   -3.66138504893411
H        -2.02383316633767    0.50971009808561   -3.29222777384527
H        -1.84346476053474    1.66256376354346   -1.97393634072328
C         0.82672556523793    2.20511315970544   -2.20187982550492
O         0.75958039186900    1.78372150525652   -0.82944079698949
C         2.30726523519081    2.19288623715093   -2.59831260393408
H         2.70781665504810    1.19515127431556   -2.44071932308031
H         2.44727977508719    2.50683400608133   -3.62882293542919
H         2.84905222164669    2.87178725613861   -1.94446395324314
C         0.27350807371760    3.62018801410588   -2.33894666917720
H        -0.72599626426553    3.69496737363703   -1.92406173290829
H         0.91782900969826    4.30218532988849   -1.79076275483861
H         0.25749838154673    3.91651816519200   -3.38443372351854
B         1.56552411145150    0.62662590900826    1.85847918907985
O         2.92243350149829    0.57843467225382    2.12098704368572
C         3.36144035507684    1.88918689344937    2.50974308000276
C         4.52880526183442    1.78909825594315    3.48423168933514
H         4.27804562132489    1.15733876368162    4.32925990748169
H         5.38143011233278    1.35069590384333    2.97304948572113
H         4.80277142759234    2.77870438269324    3.83843542059731
C         3.80345248968737    2.58649243740083    1.21891752965243
H         4.20217042242096    3.57807964964502    1.40999064108248
H         4.56616585502660    1.97609824837183    0.74303552618032
H         2.95414737419108    2.63275767382882    0.54163960604491
C         2.05299662091185    2.50642492998109    3.08858959928170
O         1.04245434995462    1.80514493503955    2.34689461048303
C         1.89666652385415    4.00865411141680    2.88593952205840
H         1.86487485840936    4.25028696968004    1.82956335909349
H         0.96360997206193    4.33413293960337    3.33753766038125
H         2.72022643514978    4.53608555047773    3.35861778718635
C         1.83991529945142    2.15111889094479    4.56526083163434
H         1.94101483370446    1.07690291556798    4.69931042375476
H         2.54324518681295    2.67598894685131    5.20385717718533
H         0.82736537195349    2.42789710317607    4.84945823532736
B         2.27820000000004   -1.33089999999997    0.17409999999999
O         2.90286663633341   -2.54968516856535    0.40087951321225
C         4.25829845742151   -2.48270462491365   -0.07579226973247
C         5.11279279741434   -2.06100516019554    1.12382114813421
H         4.75153872988521   -1.10333592124859    1.49054017022082
H         4.98058276524114   -2.79424215534500    1.91501217655750
H         6.16520173521160   -2.00255499016990    0.86424695135611
C         4.71166687390988   -3.84524167305477   -0.58744536605868
H         4.74267819924526   -4.54281450787366    0.24444734907150
H         5.70572561573873   -3.76554054871204   -1.01801986384026
H         4.02611375056823   -4.23413945329355   -1.33201892373620
C         4.16236244235099   -1.36238882645923   -1.15516875428223
O         3.06337987423470   -0.57399379928904   -0.67009910089096
C         5.40735585269968   -0.49601663481148   -1.30900575687636
H         6.25589444713410   -1.10904223960888   -1.59906850401771
H         5.23032864753396    0.24836878078782   -2.08020627679960
H         5.63151950415581    0.02076761847299   -0.38308821294850
C         3.73920640326048   -1.90574694491985   -2.52676595429942
H         2.84762222160456   -2.51746276975751   -2.41639137610727
H         3.48560648076012   -1.06590693307334   -3.16882078393360
H         4.53459789311579   -2.47933364308097   -2.99212016592591
H        -3.38823430270719   -3.97843172318689   -2.57210637512294
H        -5.19110321217570    1.49302890666099    1.28978657061483
C         0.23589999999996   -1.68139999999999    2.96029999999998
C        -1.01480101050631   -2.12367560811047    3.35950847120234
C         1.26984643059915   -1.61854749356434    3.91840551453777
C        -1.23732506380983   -2.45028582009251    4.70335657716926
H        -1.82482163984265   -2.25019627243059    2.65531940002727
C         1.08492888380548   -1.93214211182670    5.24795114633432
H         2.25338131328799   -1.33083107593340    3.58144189721085
C        -0.17972058945152   -2.36047372881286    5.63015376866676
C        -2.33413902866585   -2.96623118023561    5.45487273075009
H         1.88977259298454   -1.88829813584198    5.96477968531263
O        -0.57854653059598   -2.79286380510032    6.84868163137153
C        -1.89243531449716   -3.16801368947840    6.73592948735364
H        -3.32259950206414   -3.17970262640264    5.10328559355266
B        -2.60176798502622   -3.81704380747314    7.95252222150950
O        -1.94981461908470   -4.28700121659632    9.05793157382673
O        -3.95040399085987   -4.03762308427970    8.01849420524409
C        -2.87508334548961   -5.04254467617313    9.84853621363636
C        -4.26609538314020   -4.53461428131232    9.32672316767105
C        -2.62984033391721   -6.52352752502895    9.52907885480002
C        -2.61346225469325   -4.80219008825363   11.33322805281210
C        -5.34859323552777   -5.60623683244383    9.22830922890777
C        -4.80138517293807   -3.34901006151413   10.14027285866546
H        -1.58819655160271   -6.75399963151621    9.73623496735491
H        -2.81333780117887   -6.71645937983718    8.47547932638331
H        -3.26229785757483   -7.16069668124889   10.13693968821356
H        -1.64764722256527   -5.22484975292315   11.59444202787297
H        -3.38234016528983   -5.28845768427478   11.92496777760962
H        -2.59130583714147   -3.74319439871774   11.56411151184635
H        -5.51038176486479   -6.05526752595828   10.20277255488530
H        -5.07718207278396   -6.37536205947689    8.51417025151545
H        -6.27309020688899   -5.14476865240340    8.89398816507802
H        -5.11181337160067   -3.66740428591658   11.12897776373817
H        -5.65514592059148   -2.92650457585620    9.61731075514200
H        -4.04103160359891   -2.57714131528796   10.22260986583558
119
 energy: -172.749147339793 gnorm: 0.034935607657 xtb: 6.4.1 (1a32961)
N        -0.94885472488086   -2.09181370125304   -0.26342093432211
C        -2.22582256351978   -1.68245654191436   -0.36819565940527
C        -3.12903727275825   -2.35206701573571   -1.20338479180560
C        -2.71113770999147   -3.45116674313415   -1.92098035642674
C        -1.38996746019845   -3.87115355284645   -1.78921495071024
C        -0.55718289013130   -3.15671785064259   -0.95463522762177
H         0.47504191433699   -3.44424415826213   -0.81608088001104
H        -1.02247879752319   -4.73157430202868   -2.32313503915050
H        -4.14804796705546   -2.01551492835681   -1.29566406676228
C        -2.59260094381289   -0.51687313515504    0.42753450478126
N        -1.60358394986623    0.05721124261106    1.14303590498347
C        -1.88939338467961    1.12454872318233    1.88115051994765
C        -3.15179012143040    1.67551821071518    1.97040114348137
C        -4.18430521603490    1.09095874753260    1.24321021390608
C        -3.89676489426762   -0.00815088430360    0.46328220078591
H        -4.68336738107513   -0.47230707409722   -0.10742103390276
H        -3.32806129559375    2.53439212320802    2.59654397062086
H        -1.05355799309623    1.54914172708113    2.41401919718953
Ir        0.42150000000001   -0.81649999999999    0.91330000000000
H         0.87260000000000   -2.23030000000000    1.54050000000000
B         0.47858592968204    0.44713072087547   -0.75174590711566
O         0.13740073208746   -0.01909627368841   -2.01381394989573
C         0.00046966863427    1.09233689670507   -2.91152832822183
C         0.49198207499804    0.72709877797005   -4.30940875940713
H         1.50508248090898    0.34143924446955   -4.28197381347551
H         0.45463780468626    1.60477963282401   -4.94960555808587
H        -0.15321393753133   -0.04067254764908   -4.72841924578031
C        -1.50069590901181    1.41245534385041   -2.97263176550431
H        -1.70770302469735    2.21977914731138   -3.66851350789207
H        -2.03099539955904    0.51878394683141   -3.29468060027804
H        -1.85741325085484    1.67683788735909   -1.97936853656951
C         0.82028341629584    2.20683247617917   -2.19106488481874
O         0.75950973316645    1.79235650636458   -0.81891420695509
C         2.29954213309855    2.19494231496672   -2.59490898121643
H         2.70179977137570    1.19886678892244   -2.43116497324468
H         2.43196894557424    2.50121218344307   -3.62857533154644
H         2.84250774464950    2.88059483829195   -1.94911648390549
C         0.26658067257478    3.62172506305974   -2.33594118770316
H        -0.73129315569546    3.70058428274975   -1.91792581178965
H         0.91423770692762    4.30779516990626   -1.79666153934988
H         0.24691087512712    3.90670042147528   -3.38452758955444
B         1.56619897697964    0.63095776590747    1.85907177204491
O         2.92319287370147    0.58513444896001    2.11035134628845
C         3.36125935530189    1.89139842732158    2.50982575115422
C         4.52711980452556    1.78760400057305    3.48700658321549
H         4.27658727492501    1.15057015960284    4.32816448338422
H         5.38203370270348    1.35496580274824    2.97461919007239
H         4.79580565863441    2.77677739915900    3.84639460672528
C         3.80774021319452    2.59861671923700    1.22506857721785
H         4.20331837280824    3.58942166550235    1.42525323577304
H         4.57382079560324    1.99260853371168    0.74885314923259
H         2.96032674085042    2.64702091212011    0.54578319005360
C         2.05295416232464    2.50739094000809    3.09064474891120
O         1.04108312283691    1.80165163574234    2.35771842404444
C         1.89577005851310    4.00989107807902    2.88490890953759
H         1.85731432369172    4.24981427301297    1.82827516304016
H         0.96637327353872    4.33723690441352    3.34280654413835
H         2.72411206830483    4.53546857601370    3.35121322244187
C         1.84824782935645    2.15939470420199    4.57103995205710
H         1.95131387486480    1.08591424544943    4.70865077980394
H         2.55526495166682    2.68882853556934    5.20150588764616
H         0.83700823554733    2.43693833469041    4.85894214388401
B         2.27820000000008   -1.33089999999995    0.17409999999998
O         2.90362645147214   -2.54486332636824    0.41010321086263
C         4.25411135644266   -2.48300041046640   -0.07382319464818
C         5.11670681435658   -2.06216084088801    1.12114836239669
H         4.75723602246249   -1.10416352420508    1.48864424777495
H         4.98744275779336   -2.79549327951560    1.91266206856943
H         6.16713431492960   -2.00504416309536    0.85457181166290
C         4.70342800203442   -3.84752921913717   -0.58592737489331
H         4.73722738788858   -4.54351490077100    0.24717313645805
H         5.69579420858451   -3.76635962841762   -1.01980907673409
H         4.01517522208996   -4.23701189207642   -1.32775628391055
C         4.15951616622313   -1.36438630486809   -1.15516968908881
O         3.05611851125760   -0.57888121401108   -0.67883496721650
C         5.40492798354272   -0.49700540001075   -1.30435966933066
H         6.25340126851991   -1.11357543544158   -1.58711369606556
H         5.23223367222613    0.24393368595712   -2.07987460489109
H         5.62446301435778    0.02303084767552   -0.37915348105003
C         3.74798223563217   -1.91152866140158   -2.52954653956392
H         2.85662612452886   -2.52421742036801   -2.42426972467818
H         3.49957528925375   -1.07308262325032   -3.17547032742676
H         4.54921550986341   -2.48466212816864   -2.98495636977546
H        -3.39456756762057   -3.97531468084143   -2.57070800042907
H        -5.18718182984001    1.48725203973343    1.28640370441566
C         0.23589999999995   -1.68139999999998    2.96029999999999