12
 energy: -17.458620299514 gnorm: 0.038703664370 xtb: 6.4.1 (1a32961)
N        -1.26222000000000   -0.64165000000000    0.00078000000000
C        -1.38799000000000    0.71564000000000    0.00000000000000
C        -0.10793000000000    1.21356000000000   -0.00079000000000
C         0.72728000000000    0.07266000000000   -0.00078000000000
C         2.20846000000000    0.02342000000000   -0.00234000000000
N         0.01348000000000   -1.06014000000000    0.00023000000000
H        -1.99699000000000   -1.34111000000000    0.00155000000000
H        -2.35600000000000    1.19501000000000   -0.00003000000000
H         0.18721000000000    2.25313000000000   -0.00146000000000
H         2.63617000000000    1.03114000000000    0.00181000000000
H         2.57482000000000   -0.49602000000000   -0.89364000000000
H         2.57684000000000   -0.50412000000000    0.88332000000000
12
 energy: -17.460018877682 gnorm: 0.010950818952 xtb: 6.4.1 (1a32961)
N        -1.27299841827626   -0.63863810005691    0.00063082499487
C        -1.38843638794137    0.70671755718029    0.00014777670136
C        -0.10671230438687    1.20443002479882   -0.00110536820894
C         0.73062683081420    0.07311253955480   -0.00109187473752
C         2.21644979655690    0.02954116771137   -0.00230517110180
N         0.00271060184906   -1.03929432868295   -0.00003116225261
H        -2.00577330208556   -1.33303733824623    0.00154040729300
H        -2.34753905949315    1.18622914599705    0.00066022358872
H         0.19272431826805    2.23443228246040   -0.00167238908051
H         2.63039109894404    1.03782070477505    0.00178034245432
H         2.58022032751918   -0.49596444069197   -0.88541556830851
H         2.58146649823176   -0.50382921479972    0.87551195865763
12
 energy: -17.460111629395 gnorm: 0.002985845272 xtb: 6.4.1 (1a32961)
N        -1.27382810298010   -0.63887432382419    0.00064290167850
C        -1.38653166511666    0.70329721679236    0.00009022355676
C        -0.10536433314398    1.20185481443490   -0.00100507326419
C         0.73062783613455    0.06992289596026   -0.00119889301887
C         2.21785804046787    0.03072188257119   -0.00235518608092
N        -0.00013087645526   -1.03606081018910   -0.00008457503581
H        -2.00627757766463   -1.33067216568845    0.00161397676155
H        -2.34131713045971    1.18778716217421    0.00062902471392
H         0.19624229923297    2.22955133504408   -0.00153922256480
H         2.62005835141084    1.04106854381441    0.00167866044549
H         2.58039285534958   -0.49468579747914   -0.88437356522928
H         2.58140030322455   -0.50239075361055    0.87455172803766
12
 energy: -17.460121051529 gnorm: 0.001134275436 xtb: 6.4.1 (1a32961)
N        -1.27398453805872   -0.63971944739807    0.00056537838313
C        -1.38621351804148    0.70238879439533    0.00020134967942
C        -0.10518551832371    1.20109667593433   -0.00108159093837
C         0.73012499788407    0.06757424269733   -0.00125475549672
C         2.21814316172762    0.03106836358958   -0.00232701035277
N        -0.00103336615256   -1.03726607868495   -0.00022692196303
H        -2.00712751756825   -1.33056857413830    0.00152131108473
H        -2.33924692991083    1.19083870581403    0.00090378813411
H         0.19749092004176    2.22847007432287   -0.00167026608719
H         2.61651312358041    1.04230121494743    0.00161821836225
H         2.58136698777702   -0.49357832360581   -0.88427068911222
H         2.58228219704466   -0.50108564787378    0.87467118830667
12
 energy: -17.460123279890 gnorm: 0.000729146850 xtb: 6.4.1 (1a32961)
N        -1.27436856503592   -0.64086976082102    0.00056675878768
C        -1.38623701836537    0.70152710602076    0.00009380590331
C        -0.10517743328666    1.20006387385977   -0.00083122048379
C         0.72961807318217    0.06488590467138   -0.00123683763042
C         2.21823757703293    0.03152278436885   -0.00239580443503
N        -0.00176547509351   -1.03937837003533   -0.00018952219703
H        -2.00884532849392   -1.33062619274997    0.00149167929165
H        -2.33713192000393    1.19492718125046    0.00066198635107
H         0.19885123713829    2.22711507996294   -0.00129779656167
H         2.61341854805070    1.04380662561216    0.00128688124900
H         2.58275712475259   -0.49219550661972   -0.88442065535352
H         2.58377318012263   -0.49925872552029    0.87492072507876
12
 energy: -17.460123755921 gnorm: 0.000103271158 xtb: 6.4.1 (1a32961)
N        -1.27436089850898   -0.64066283002262    0.00045623325114
C        -1.38633318579041    0.70165891372437    0.00030649795282
C        -0.10523391077293    1.20017762960964   -0.00105539108195
C         0.72980190619708    0.06558511027932   -0.00127086459457
C         2.21808604343100    0.03147042122023   -0.00231609608665
N        -0.00147815825455   -1.03897556551549   -0.00040513840722
H        -2.00872972920657   -1.33053336285111    0.00133315527210
H        -2.33755045385950    1.19406948044623    0.00112273777480
H         0.19858560451823    2.22726210252468   -0.00160040083509
H         2.61433116370252    1.04352150379735    0.00130006585253
H         2.58253171946787   -0.49256966376833   -0.88424209956883
H         2.58347989907626   -0.49948373944427    0.87502130047092
