110
 energy: -159.049458963166 gnorm: 0.000469717642 xtb: 6.4.1 (1a32961)
N        -0.96510000000002   -2.11530000000005   -0.24090000000003
C        -2.24700000000007   -1.69840000000002   -0.36220000000010
C        -3.14040000000001   -2.36819999999993   -1.21199999999987
C        -2.70220000000004   -3.47559999999999   -1.93050000000003
C        -1.37780000000032   -3.89880000000017   -1.78760000000013
C        -0.54289999999989   -3.18669999999987   -0.93510000000011
H         0.49810000000001   -3.45630000000000   -0.78940000000000
H        -0.99569999999999   -4.76029999999994   -2.32769999999999
H        -4.16499999999999   -2.02889999999999   -1.31830000000001
C        -2.62129999999999   -0.50949999999994    0.44100000000014
N        -1.62599999999998    0.07330000000000    1.16020000000001
C        -1.89680000000000    1.15240000000003    1.91689999999998
C        -3.17229999999998    1.70329999999997    1.99650000000000
C        -4.20509999999999    1.11739999999999    1.26270000000005
C        -3.92610000000002    0.00250000000000    0.47819999999993
H        -4.71959999999995   -0.46419999999998   -0.09520000000006
H        -3.34630000000000    2.57510000000000    2.62069999999998
H        -1.04450000000001    1.57419999999999    2.43689999999999
Ir        0.42149999999999   -0.81650000000000    0.91330000000000
H         0.87260000000000   -2.23030000000000    1.54050000000000
B         0.50669999999997    0.41560000000004   -0.81540000000000
O         0.19500000000000   -0.04700000000005   -2.09149999999995
C         0.00649999999990    1.10039999999993   -2.95430000000001
C         0.49020000000005    0.74739999999984   -4.35780000000001
H         1.51609999999991    0.37380000000003   -4.33700000000000
H         0.44730000000000    1.62239999999984   -5.01670000000004
H        -0.14740000000001   -0.03389999999983   -4.78429999999995
C        -1.50120000000011    1.39560000000008   -2.96670000000005
H        -1.75370000000000    2.21459999999995   -3.64850000000002
H        -2.03199999999996    0.49450000000003   -3.28930000000000
H        -1.85170000000000    1.65210000000002   -1.96220000000003
C         0.84230000000007    2.20670000000003   -2.22040000000002
O         0.75199999999999    1.78260000000003   -0.83689999999995
C         2.32929999999976    2.18620000000002   -2.59899999999988
H         2.74129999999996    1.18500000000002   -2.45749999999999
H         2.48869999999999    2.51300000000003   -3.63180000000009
H         2.87200000000003    2.86269999999997   -1.93200000000003
C         0.28440000000002    3.62290000000007   -2.33660000000010
H        -0.72650000000000    3.69039999999998   -1.92909999999999
H         0.92129999999993    4.31480000000000   -1.77610000000002
H         0.26430000000001    3.94809999999997   -3.38319999999997
B         1.56300000000000    0.60959999999996    1.84840000000001
O         2.92779999999999    0.55229999999997    2.15020000000002
C         3.36330000000002    1.88660000000003    2.50259999999990
C         4.53139999999998    1.78590000000014    3.47740000000001
H         4.27910000000004    1.16090000000002    4.33689999999999
H         5.39389999999994    1.33790000000001    2.97340000000002
H         4.82389999999999    2.77869999999996    3.83819999999998
C         3.79699999999998    2.56850000000004    1.19670000000010
H         4.20020000000000    3.57090000000002    1.37679999999999
H         4.56740000000000    1.95560000000004    0.72110000000001
H         2.95239999999993    2.63260000000001    0.50540000000001
C         2.05040000000003    2.50090000000002    3.09319999999995
O         1.03750000000002    1.81620000000000    2.31910000000000
C         1.89100000000000    4.00450000000006    2.88649999999987
H         1.87290000000001    4.25440000000001    1.82410000000000
H         0.94939999999999    4.34259999999999    3.33169999999995
H         2.71080000000001    4.55149999999997    3.36629999999999
C         1.82469999999995    2.13200000000008    4.56519999999997
H         1.92610000000000    1.05330000000011    4.71319999999997
H         2.52610000000000    2.65279999999997    5.22539999999999
H         0.80630000000005    2.41579999999998    4.84899999999999
B         2.27820000000001   -1.33089999999998    0.17409999999999
O         2.89460000000000   -2.57740000000003    0.38449999999999
C         4.26929999999999   -2.48200000000001   -0.07210000000000
C         5.10899999999999   -2.05379999999995    1.14009999999997
H         4.76350000000000   -1.08740000000001    1.51749999999999
H         4.98050000000000   -2.79470000000000    1.93590000000002
H         6.17420000000001   -1.99290000000000    0.89300000000000
C         4.71949999999999   -3.84659999999998   -0.58470000000000
H         4.75280000000000   -4.56130000000000    0.24420000000003
H         5.72330000000000   -3.78370000000001   -1.02010000000000
H         4.03499999999999   -4.23600000000001   -1.34169999999999
C         4.16440000000006   -1.36219999999999   -1.16299999999996
O         3.08519999999999   -0.55029999999998   -0.65400000000000
C         5.40720000000003   -0.48870000000005   -1.31550000000002
H         6.27320000000006   -1.09010000000002   -1.61530000000000
H         5.23300000000000    0.26930000000001   -2.08590000000000
H         5.64269999999997    0.02649999999999   -0.38240000000005
C         3.71800000000005   -1.89830000000002   -2.53109999999993
H         2.82530000000005   -2.52159999999998   -2.42739999999999
H         3.46090000000000   -1.05250000000005   -3.17549999999999
H         4.50570000000004   -2.48290000000006   -3.01789999999998
H        -3.38500000000004   -4.00129999999992   -2.59309999999997
H        -5.21400000000000    1.52080000000001    1.29960000000000
C         0.23589999999997   -1.68140000000001    2.96029999999997
C        -0.98716101501634   -2.17736982614508    3.39278604332348
C         1.29569387316789   -1.58977770161081    3.87929878258524
C        -1.15320840668780   -2.53133351018336    4.74117800380829
H        -1.81172545091462   -2.32880934924703    2.70704677596756
C         1.16017844223462   -1.90958344695017    5.21763616360414
H         2.26556731929358   -1.27955780912869    3.51389219519809
C        -0.07622582524010   -2.39246908336796    5.63648054811164
C        -2.21106114524973   -3.12646558435227    5.47963883146164
H         1.99405455841819   -1.83324786903385    5.90306931487196
N        -0.46961190848596   -2.87154563458107    6.85317046927102
C        -1.76062138822999   -3.34017707913322    6.76653637134053
H        -3.18303193426742   -3.37185590472984    5.08932021757415
H         0.12158421677723   -2.92465550421640    7.66514169230311
C        -2.41728998221745   -3.99085049278362    7.89136647320300
C        -1.79647687258922   -4.10091076232941    9.14068779612582
C        -3.68472530623331   -4.56204188163112    7.73866151205186
C        -2.41266895590355   -4.76741989139022   10.18798162599263
H        -0.82089122719359   -3.66561722525298    9.31338858095401
C        -4.30048428780603   -5.22508131395246    8.78798922059198
H        -4.18790835556704   -4.49295052821165    6.78369422173250
C        -3.66575845604991   -5.33645387954595   10.01679938503003
H        -1.90772298112342   -4.84494593232781   11.14264959125678
H        -5.27994970090452   -5.66335643040489    8.64356877301394
H        -4.14275927657169   -5.86227071459100   10.83374457094206
