110
 energy: -159.049992692637 gnorm: 0.074886639513 xtb: 6.4.1 (1a32961)
N        -0.96510000000002   -2.11530000000005   -0.24090000000003
C        -2.24700000000007   -1.69840000000002   -0.36220000000010
C        -3.14040000000001   -2.36819999999993   -1.21199999999987
C        -2.70220000000004   -3.47559999999999   -1.93050000000003
C        -1.37780000000032   -3.89880000000017   -1.78760000000013
C        -0.54289999999989   -3.18669999999987   -0.93510000000011
H         0.49810000000001   -3.45630000000000   -0.78940000000000
H        -0.99569999999999   -4.76029999999994   -2.32769999999999
H        -4.16499999999999   -2.02889999999999   -1.31830000000001
C        -2.62129999999999   -0.50949999999994    0.44100000000014
N        -1.62599999999998    0.07330000000000    1.16020000000001
C        -1.89680000000000    1.15240000000003    1.91689999999998
C        -3.17229999999998    1.70329999999997    1.99650000000000
C        -4.20509999999999    1.11739999999999    1.26270000000005
C        -3.92610000000002    0.00250000000000    0.47819999999993
H        -4.71959999999995   -0.46419999999998   -0.09520000000006
H        -3.34630000000000    2.57510000000000    2.62069999999998
H        -1.04450000000001    1.57419999999999    2.43689999999999
Ir        0.42149999999999   -0.81650000000000    0.91330000000000
H         0.87260000000000   -2.23030000000000    1.54050000000000
B         0.50669999999997    0.41560000000004   -0.81540000000000
O         0.19500000000000   -0.04700000000005   -2.09149999999995
C         0.00649999999990    1.10039999999993   -2.95430000000001
C         0.49020000000005    0.74739999999984   -4.35780000000001
H         1.51609999999991    0.37380000000003   -4.33700000000000
H         0.44730000000000    1.62239999999984   -5.01670000000004
H        -0.14740000000001   -0.03389999999983   -4.78429999999995
C        -1.50120000000011    1.39560000000008   -2.96670000000005
H        -1.75370000000000    2.21459999999995   -3.64850000000002
H        -2.03199999999996    0.49450000000003   -3.28930000000000
H        -1.85170000000000    1.65210000000002   -1.96220000000003
C         0.84230000000007    2.20670000000003   -2.22040000000002
O         0.75199999999999    1.78260000000003   -0.83689999999995
C         2.32929999999976    2.18620000000002   -2.59899999999988
H         2.74129999999996    1.18500000000002   -2.45749999999999
H         2.48869999999999    2.51300000000003   -3.63180000000009
H         2.87200000000003    2.86269999999997   -1.93200000000003
C         0.28440000000002    3.62290000000007   -2.33660000000010
H        -0.72650000000000    3.69039999999998   -1.92909999999999
H         0.92129999999993    4.31480000000000   -1.77610000000002
H         0.26430000000001    3.94809999999997   -3.38319999999997
B         1.56300000000000    0.60959999999996    1.84840000000001
O         2.92779999999999    0.55229999999997    2.15020000000002
C         3.36330000000002    1.88660000000003    2.50259999999990
C         4.53139999999998    1.78590000000014    3.47740000000001
H         4.27910000000004    1.16090000000002    4.33689999999999
H         5.39389999999994    1.33790000000001    2.97340000000002
H         4.82389999999999    2.77869999999996    3.83819999999998
C         3.79699999999998    2.56850000000004    1.19670000000010
H         4.20020000000000    3.57090000000002    1.37679999999999
H         4.56740000000000    1.95560000000004    0.72110000000001
H         2.95239999999993    2.63260000000001    0.50540000000001
C         2.05040000000003    2.50090000000002    3.09319999999995
O         1.03750000000002    1.81620000000000    2.31910000000000
C         1.89100000000000    4.00450000000006    2.88649999999987
H         1.87290000000001    4.25440000000001    1.82410000000000
H         0.94939999999999    4.34259999999999    3.33169999999995
H         2.71080000000001    4.55149999999997    3.36629999999999
C         1.82469999999995    2.13200000000008    4.56519999999997
H         1.92610000000000    1.05330000000011    4.71319999999997
H         2.52610000000000    2.65279999999997    5.22539999999999
H         0.80630000000005    2.41579999999998    4.84899999999999
B         2.27820000000001   -1.33089999999998    0.17409999999999
O         2.89460000000000   -2.57740000000003    0.38449999999999
C         4.26929999999999   -2.48200000000001   -0.07210000000000
C         5.10899999999999   -2.05379999999995    1.14009999999997
H         4.76350000000000   -1.08740000000001    1.51749999999999
H         4.98050000000000   -2.79470000000000    1.93590000000002
H         6.17420000000001   -1.99290000000000    0.89300000000000
C         4.71949999999999   -3.84659999999998   -0.58470000000000
H         4.75280000000000   -4.56130000000000    0.24420000000003
H         5.72330000000000   -3.78370000000001   -1.02010000000000
H         4.03499999999999   -4.23600000000001   -1.34169999999999
C         4.16440000000006   -1.36219999999999   -1.16299999999996
O         3.08519999999999   -0.55029999999998   -0.65400000000000
C         5.40720000000003   -0.48870000000005   -1.31550000000002
H         6.27320000000006   -1.09010000000002   -1.61530000000000
H         5.23300000000000    0.26930000000001   -2.08590000000000
H         5.64269999999997    0.02649999999999   -0.38240000000005
C         3.71800000000005   -1.89830000000002   -2.53109999999993
H         2.82530000000005   -2.52159999999998   -2.42739999999999
H         3.46090000000000   -1.05250000000005   -3.17549999999999
H         4.50570000000004   -2.48290000000006   -3.01789999999998
H        -3.38500000000004   -4.00129999999992   -2.59309999999997
H        -5.21400000000000    1.52080000000001    1.29960000000000
C         0.23589999999997   -1.68140000000001    2.96029999999997
C        -0.98716101501634   -2.17736982614508    3.39278604332348
C         1.29569387316789   -1.58977770161081    3.87929878258524
C        -1.15320840668780   -2.53133351018336    4.74117800380829
H        -1.81172545091462   -2.32880934924703    2.70704677596756
C         1.16017844223462   -1.90958344695017    5.21763616360414
H         2.26556731929358   -1.27955780912869    3.51389219519809
C        -0.07622582524010   -2.39246908336796    5.63648054811164
C        -2.21106114524973   -3.12646558435227    5.47963883146164
H         1.99405455841819   -1.83324786903385    5.90306931487196
N        -0.46961190848596   -2.87154563458107    6.85317046927102
C        -1.76062138822999   -3.34017707913322    6.76653637134053
H        -3.18303193426742   -3.37185590472984    5.08932021757415
H         0.12158421677723   -2.92465550421640    7.66514169230311
C        -2.41728998221745   -3.99085049278362    7.89136647320300
C        -1.79647687258922   -4.10091076232941    9.14068779612582
C        -3.68472530623331   -4.56204188163112    7.73866151205186
C        -2.41266895590355   -4.76741989139022   10.18798162599263
H        -0.82089122719359   -3.66561722525298    9.31338858095401
C        -4.30048428780603   -5.22508131395246    8.78798922059198
H        -4.18790835556704   -4.49295052821165    6.78369422173250
C        -3.66575845604991   -5.33645387954595   10.01679938503003
H        -1.90772298112342   -4.84494593232781   11.14264959125678
H        -5.27994970090452   -5.66335643040489    8.64356877301394
H        -4.14275927657169   -5.86227071459100   10.83374457094206
110
 energy: -159.056472788969 gnorm: 0.045292331958 xtb: 6.4.1 (1a32961)
N        -0.96145316541676   -2.09965062761049   -0.25046736098658
C        -2.24043413668897   -1.69040846917609   -0.36319704511712
C        -3.13488725423150   -2.36205251435114   -1.20590119953527
C        -2.70447060846957   -3.46325182392019   -1.92151637535416
C        -1.38410912198114   -3.88208292812899   -1.78179890286761
C        -0.55421663227468   -3.16748392886210   -0.94014564066368
H         0.47942026819786   -3.44779642613463   -0.79032776380340
H        -1.00772375007902   -4.74225552523149   -2.31703006773657
H        -4.15552268219592   -2.02670102259883   -1.31005841550768
C        -2.61179137803094   -0.51490383328029    0.43728893960461
N        -1.61905506333077    0.06296356214131    1.15092933822001
C        -1.89737682231597    1.13596145980210    1.89569107649282
C        -3.16345926472971    1.68708124279633    1.98178959641927
C        -4.19544993221160    1.10340068264726    1.25495429212150
C        -3.91440777928341   -0.00327128943862    0.47533391656512
H        -4.70585436058097   -0.46584329785954   -0.09443547765663
H        -3.33826757153156    2.55090946153102    2.60789124458339
H        -1.05429025876317    1.55426983892123    2.42442990662390
Ir        0.42149999999999   -0.81650000000000    0.91330000000000
H         0.87260000000000   -2.23030000000000    1.54050000000000
B         0.48880319398224    0.42685848725921   -0.78806091157456
O         0.17560073533366   -0.03387111075043   -2.06103888256183
C         0.01106038550311    1.09657924781879   -2.94317179856486
C         0.49019328063184    0.74633216010910   -4.34803743426791
H         1.50913129049646    0.36947532856120   -4.32660384456126
H         0.44548531999245    1.62151692626614   -4.99700590310195
H        -0.14861373220031   -0.02975303635025   -4.76828091961142
C        -1.49308584033903    1.39905160990984   -2.97038956649126
H        -1.73150091369293    2.21175361953240   -3.65497695267625
H        -2.02305433328822    0.50171028952726   -3.28992078734618
H        -1.84000162122842    1.65402080402138   -1.96888216394056
C         0.83244841833799    2.20721555231945   -2.21301536964172
O         0.75545275163545    1.78269262209075   -0.83554026698105
C         2.31499919198785    2.19037212767368   -2.60051822109331
H         2.71884446669905    1.19117619177151   -2.44984239237559
H         2.46695946059531    2.51112786302186   -3.63050214202206
H         2.85736397188979    2.86521706814457   -1.93926787846872
C         0.28113983399579    3.62325265754609   -2.34113019852910
H        -0.72213192649817    3.69214795957967   -1.92872809962536
H         0.92071420645813    4.30697007691112   -1.78441211679131
H         0.26351431974345    3.93529665028664   -3.38552415796307
B         1.56367958225301    0.62288921281378    1.84681977336592
O         2.92479754291173    0.57043733667597    2.12965178069855
C         3.36323418927466    1.88969956813671    2.50746170090762
C         4.53239501268484    1.78968455586376    3.47902811834439
H         4.27907970995899    1.16097884828335    4.32856930026389
H         5.38761394665523    1.34524467236054    2.97161460349886
H         4.81552707794872    2.77950151138071    3.83617072536744
C         3.80027175521006    2.57692584653357    1.20974983094195
H         4.20185229981840    3.57246210638921    1.39385130792978
H         4.56389102436667    1.96445814012841    0.73314434160732
H         2.95201354265842    2.62875108291286    0.52849762572444
C         2.05287424406493    2.50663814091541    3.08821320374831
O         1.04025506035586    1.81283954318622    2.33339632298764
C         1.89445280865823    4.00883504826987    2.88864812443664
H         1.86898127844166    4.25240571863516    1.83033921676450
H         0.95673721533982    4.33748476553912    3.33503145647675
H         2.71504834518435    4.54491309074680    3.36496114934289
C         1.83198057178044    2.14204705378573    4.56046836497742
H         1.93253908699914    1.06618966287245    4.69754342769770
H         2.53322811013555    2.66358702186643    5.20970772260162
H         0.81738420461251    2.42048855265807    4.84447598280786
B         2.27820000000001   -1.33089999999998    0.17409999999999
O         2.90165932789764   -2.56190697449351    0.39073815565679
C         4.26581534692043   -2.48375316466526   -0.07742837058510
C         5.11000433118508   -2.05881149249647    1.12853654548007
H         4.75339431609088   -1.09859289099340    1.49889173900701
H         4.97770700289606   -2.79389395779869    1.92159198183849
H         6.16786438667922   -1.99876379413892    0.87689624791652
C         4.72043222265702   -3.84609054869896   -0.58691869336836
H         4.74958417476829   -4.55024673410158    0.24332325882382
H         5.71822391111713   -3.77487013619121   -1.01922215031750
H         4.03454971627853   -4.23354365194310   -1.33549133486865
C         4.16670675475239   -1.36091811903747   -1.15764445172549
O         3.07501102219201   -0.56389180260426   -0.66214747149644
C         5.41011117845574   -0.49284338007028   -1.31544206756170
H         6.26634030181321   -1.09873931686531   -1.61095497887077
H         5.23172704496137    0.25819019263373   -2.08385790911241
H         5.63750243333400    0.02190768186817   -0.38641734115987
C         3.72974593248586   -1.90045688301368   -2.52566038068421
H         2.83745710671428   -2.51553494250274   -2.41671001796816
H         3.47234924874891   -1.05901149278644   -3.16763810369699
H         4.51959414877637   -2.47790370605445   -3.00339227430375
H        -3.38371036462003   -3.98822139698791   -2.57961368397017
H        -5.19933543952704    1.50531561296733    1.29488869994951
C         0.23589999999997   -1.68140000000002    2.96029999999996
C        -0.98499947673672   -2.17659703381463    3.39122416941975
C         1.29660788415991   -1.58982797689962    3.88458465257129
C        -1.15393646706507   -2.53103854366332    4.73835392596543
H        -1.80836107670074   -2.32795515383947    2.70537085018725
C         1.15958746413231   -1.90909651358263    5.21878981561438
H         2.26450796155953   -1.28007622377176    3.52070551917712
C        -0.07449561989051   -2.39172781700510    5.63772590267637
C        -2.21072351418977   -3.12643960129610    5.47837312030001
H         1.99202085839206   -1.83234106764436    5.90380147335660
N        -0.46968689283186   -2.87045913474211    6.85141885415468
C        -1.76064685289842   -3.33963701924246    6.76473799366217
H        -3.18037409719398   -3.37149642218785    5.08955513191270
H         0.11980022541371   -2.92336572557760    7.66323538083961
C        -2.41701979021432   -3.98922524370678    7.88862588272253
C        -1.79800115705222   -4.09972296063238    9.13836185609026
C        -3.68438831326497   -4.56044086235699    7.73751487233536
C        -2.41362467975919   -4.76426459864217   10.18327911474928
H        -0.82417130926934   -3.66570312679492    9.31170147872149
C        -4.29872845553903   -5.22118381856638    8.78476428200959
H        -4.18703550429000   -4.49197174711715    6.78495692698853
C        -3.66523397142732   -5.33229029296472   10.01254573124717
H        -1.91015937966372   -4.84167737522822   11.13699791002369
H        -5.27680115099895   -5.65878355381097    8.64116521245914
H        -4.14184765013962   -5.85681158010372   10.82833182348505
110
 energy: -159.058104691318 gnorm: 0.035896186770 xtb: 6.4.1 (1a32961)
N        -0.95390852172967   -2.09291540262475   -0.25649618387792
C        -2.23134505288634   -1.68515345386967   -0.36419486080979
C        -3.13070912513154   -2.35548779160667   -1.20228042146203
C        -2.70840706683792   -3.45341394839798   -1.91911984116245
C        -1.38810588286218   -3.87252821418566   -1.78296642774274
C        -0.55874293139351   -3.15859108544857   -0.94570136195625
H         0.47369225734956   -3.44268636371101   -0.80388633479655
H        -1.01742182475181   -4.73226299619012   -2.31655767548594
H        -4.15013817401080   -2.02108512448875   -1.29842805884002
C        -2.59895144654059   -0.51904622844731    0.43240539280991
N        -1.60884413318078    0.05254971853866    1.14908536825421
C        -1.89348247642338    1.12062341894009    1.88844410116307
C        -3.15433315931860    1.67448977304043    1.97466861678481
C        -4.18691751564820    1.09244313398858    1.24711450840114
C        -3.90185121961176   -0.00802103408781    0.46814970389139
H        -4.69042919025202   -0.47118010003193   -0.10083451187907
H        -3.32937792005835    2.53525196720595    2.59941419945017
H        -1.05580279463390    1.54321597082892    2.41921231482051
Ir        0.42149999999999   -0.81650000000000    0.91330000000000
H         0.87260000000000   -2.23030000000000    1.54050000000000
B         0.49209726299357    0.43913436427767   -0.76468485022363
O         0.15567290769994   -0.02316859946704   -2.03016626388111
C         0.00669835260159    1.09387136603353   -2.92314497023377
C         0.49109298258176    0.73706008018994   -4.32500827623630
H         1.50623349812518    0.35621747828893   -4.30407555832051
H         0.44700739490206    1.61496729489532   -4.96482362860950
H        -0.15184783114726   -0.03298311805935   -4.74353779472141
C        -1.49565737771757    1.40614776822686   -2.97072243565686
H        -1.71527644083105    2.21472354535094   -3.66162263892713
H        -2.02498623275204    0.51104366477560   -3.29090310629456
H        -1.84565890113988    1.66515321620122   -1.97358638748981
C         0.82509234231976    2.20758693343226   -2.20106191969641
O         0.75895581118321    1.78932483950571   -0.82805725899852
C         2.30522789499250    2.19491695159519   -2.59858073684172
H         2.70582917887328    1.19726936704896   -2.44002185312198
H         2.44429568747393    2.50723831412321   -3.62982070995184
H         2.84774673452367    2.87473278041644   -1.94615356412809
C         0.27152190909489    3.62216845196547   -2.34016205440453
H        -0.72769824796685    3.69732539572071   -1.92447424001702
H         0.91622495820511    4.30499177407760   -1.79333179081828
H         0.25465777127959    3.91677852868001   -3.38621628733078
B         1.56361489117324    0.63012277536758    1.85537681160015
O         2.92327487249903    0.58467456126996    2.11338060534893
C         3.36185215318315    1.89362236228615    2.50671078483472
C         4.52863548859504    1.79074597033517    3.48183041770715
H         4.27716474783313    1.15701432413626    4.32522766764143
H         5.38165692011012    1.35325560079150    2.97041837118290
H         4.80240774638761    2.77962893414306    3.83842574210955
C         3.80497471359669    2.59379296992960    1.21816896423079
H         4.20362235388201    3.58521975085739    1.41055930746862
H         4.56773046913796    1.98371587478267    0.74173902811913
H         2.95578175771559    2.64046522496629    0.54079734213686
C         2.05386195404813    2.50962998531917    3.08737687610323
O         1.04243174396975    1.80942109312324    2.34652563131030
C         1.89741047243209    4.01192169516788    2.88634933220494
H         1.86414971028448    4.25427550736774    1.83014487555340
H         0.96470783553595    4.33685057329668    3.33914345519986
H         2.72170623396820    4.53906605775498    3.35824408283198
C         1.84255648802172    2.15327974071806    4.56385915486785
H         1.94429980103166    1.07889954115460    4.69536240257151
H         2.54670699161184    2.67823019312126    5.20166054360425
H         0.83014146051783    2.42960537491884    4.84885017992971
B         2.27820000000001   -1.33089999999998    0.17410000000000
O         2.90419005568572   -2.55019855694310    0.39952098495104
C         4.25885289636254   -2.48245794576091   -0.07737975202904
C         5.11370258814673   -2.06084008455588    1.12189732115442
H         4.75216741480811   -1.10319928548642    1.48846817798423
H         4.98149380085039   -2.79407907231869    1.91308694444367
H         6.16604685644835   -2.00214216749855    0.86178015167967
C         4.71235931437711   -3.84482322365699   -0.58911666673805
H         4.74363248528366   -4.54217267551014    0.24299062401174
H         5.70617623474596   -3.76499375610532   -1.02037311246320
H         4.02630696832408   -4.23411233165771   -1.33310173523735
C         4.16246709504449   -1.36189707299194   -1.15602838108289
O         3.06378950245381   -0.57374948819935   -0.67115916702756
C         5.40762320599199   -0.49578042124814   -1.30973838384374
H         6.25618979252183   -1.10923787608926   -1.59913246087495
H         5.23105536336277    0.24828800541726   -2.08144817030031
H         5.63139260237818    0.02159060200494   -0.38397447195889
C         3.74046425799687   -1.90572207378348   -2.52768295316969
H         2.84903440444726   -2.51784773156577   -2.41767024603432
H         3.48695843502487   -1.06635233821746   -3.17053320751751
H         4.53651004052771   -2.47928490469048   -2.99218257966727
H        -3.38913226132576   -3.97844470305743   -2.57123278244801
H        -5.18906524780000    1.49136080341931    1.28938309901658
C         0.23589999999996   -1.68140000000003    2.96029999999995
C        -0.98291026498581   -2.17670135516600    3.38973539303424
C         1.29751227325890   -1.58709464344538    3.88755204487268
C        -1.15468175082711   -2.53038303474661    4.73605449028217
H        -1.80541051437118   -2.32934820002877    2.70332414446689
C         1.15890637209428   -1.90656225759560    5.21911660821936
H         2.26343303585802   -1.27528933332038    3.52327451392440
C        -0.07394116115560   -2.39005324265602    5.63851808562857
C        -2.21061151193280   -3.12579417893423    5.47611804186368
H         1.99027368883391   -1.82884103005771    5.90478761074276
N        -0.47059168921011   -2.86847962042726    6.84957290984007
C        -1.76121733962792   -3.33807406474930    6.76247987734322
H        -3.17892540372391   -3.37151631463055    5.08758684587370
H         0.11735184110670   -2.92095711331716    7.66205744899598
C        -2.41738314820722   -3.98634066529390    7.88499107027060
C        -1.79944242072860   -4.09683272297152    9.13515061943951
C        -3.68507883811042   -4.55727453889740    7.73425072460723
C        -2.41547828001016   -4.75976230240100   10.17910386933100
H        -0.82612300123273   -3.66371183477941    9.30840203841894
C        -4.29931399638060   -5.21629334373196    8.78058679268406
H        -4.18684440051800   -4.48912866202626    6.78235439167940
C        -3.66687330790009   -5.32710356573413   10.00864315684551
H        -1.91307799897419   -4.83684940093257   11.13261036306292
H        -5.27691431126384   -5.65323069996354    8.63735565813105
H        -4.14382472921943   -5.85034115716964   10.82387361665447
110
 energy: -159.058656680731 gnorm: 0.035129296282 xtb: 6.4.1 (1a32961)
N        -0.94437784543019   -2.09019999116174   -0.26664001811991
C        -2.22305459976866   -1.68296382467390   -0.36799721767304
C        -3.12772880747101   -2.35365253754168   -1.20143578607429
C        -2.71112122620389   -3.45144466229523   -1.92021713095606
C        -1.38882484421607   -3.87056442349224   -1.79056238571890
C        -0.55519121982644   -3.15547775931764   -0.95840086743532
H         0.47733654566130   -3.44331623510703   -0.82210237555127
H        -1.02227105179190   -4.73091539323492   -2.32496345612034
H        -4.14725897656650   -2.01783800334999   -1.29068852444627
C        -2.58870898456444   -0.52085207277207    0.42897495474962
N        -1.59920119148156    0.04948882048555    1.14830223625571
C        -1.88709201608479    1.11635825393394    1.88722025719934
C        -3.14772293626107    1.66977023393734    1.97345092528253
C        -4.18072701676244    1.08752220674160    1.24384184205438
C        -3.89268248204702   -0.01033237130268    0.46385000146672
H        -4.67852490896625   -0.47330776681053   -0.10882138048799
H        -3.32392240305892    2.52872901137088    2.59922295798096
H        -1.05292541347866    1.53923536908302    2.42390821243504
Ir        0.42149999999999   -0.81650000000000    0.91330000000000
H         0.87260000000000   -2.23030000000000    1.54050000000000
B         0.47835074919528    0.45461325517120   -0.74501041024582
O         0.13405986701847   -0.01389125311651   -2.00612976352814
C        -0.00193852432719    1.09418317095666   -2.90645567251133
C         0.49000807111325    0.72591457857578   -4.30360023367738
H         1.50254548172751    0.33895758808287   -4.27572455894943
H         0.45361528004534    1.60303722749384   -4.94436047298123
H        -0.15605776555771   -0.04150849958702   -4.72169895867601
C        -1.50302386672230    1.41495290756624   -2.97077861525439
H        -1.70780565965379    2.22108996317657   -3.66850795239808
H        -2.03336925770343    0.52114833916917   -3.29224221781841
H        -1.86143880171435    1.68110391584553   -1.97865151004776
C         0.81749243331221    2.21057200476379   -2.18926354568724
O         0.75900000624456    1.80010956595310   -0.81690070377310
C         2.29628492841134    2.19863839011518   -2.59534626607346
H         2.69878423136768    1.20295834234635   -2.42974144679151
H         2.42679251056543    2.50221157022082   -3.62993598516061
H         2.84004864469934    2.88593545951118   -1.95205337485192
C         0.26293506358742    3.62487987036730   -2.33740090626894
H        -0.73426771652303    3.70450713160841   -1.91809478359517
H         0.91123990555545    4.31237117535534   -1.80086720339153
H         0.24186094746580    3.90639040229355   -3.38675976530666
B         1.56458114573816    0.63862586037503    1.85194856061137
O         2.92394395848605    0.59559871138816    2.09785627356941
C         3.36180147563925    1.89856416511407    2.50439675941620
C         4.52691782113663    1.79026096764325    3.48260808321181
H         4.27546603715592    1.14985917373186    4.32079550634399
H         5.38213309836179    1.35948278571985    2.96940654435089
H         4.79493747530645    2.77806154034613    3.84575670047960
C         3.81032631875658    2.61096010600812    1.22328162015472
H         4.20535471881277    3.60110997519225    1.42670648438634
H         4.57679039172754    2.00623522083969    0.74605553661170
H         2.96340699342272    2.66051679990226    0.54364587984850
C         2.05398952301655    2.51244770649693    3.08811418972165
O         1.04112276862702    1.80769753826317    2.35719352094801
C         1.89645811774956    4.01530161705882    2.88514844983412
H         1.85546724200873    4.25666011524296    1.82903966939522
H         0.96803841870268    4.34161900600368    3.34541855411825
H         2.72601793766187    4.53974899081886    3.35017183935310
C         1.85268867408528    2.16303371950924    4.56878494571846
H         1.95665457242743    1.08943568020703    4.70279738592323
H         2.56083341689003    2.69238668432377    5.19779278344172
H         0.84184056560319    2.43967587891724    4.85820013783715
B         2.27820000000001   -1.33089999999998    0.17410000000002
O         2.90571689188502   -2.54431178815108    0.40910802090065
C         4.25437667288013   -2.48221720036058   -0.07609119124719
C         5.11853930635255   -2.06165709739169    1.11803857549587
H         4.75868439278016   -1.10384835278401    1.48538449536723
H         4.98952886400889   -2.79491897430812    1.90942388691804
H         6.16845135864806   -2.00429421538332    0.85024264323896
C         4.70399633648199   -3.84662625444453   -0.58868665464054
H         4.73871116496478   -4.54208553871060    0.24460382465086
H         5.69564178860908   -3.76462149183425   -1.02358889294315
H         4.01509675129637   -4.23672586620652   -1.32944150572492
C         4.15897604893825   -1.36348083874297   -1.15673192933842
O         3.05530158011349   -0.57937777548470   -0.68110811706891
C         5.40457820414351   -0.49605326520551   -1.30557348387469
H         6.25274412174212   -1.11338539014968   -1.58699367378199
H         5.23258536031137    0.24402633620876   -2.08192650532013
H         5.62327936166743    0.02490498428746   -0.38079333552576
C         3.74968644944662   -1.91137632600841   -2.53166558183410
H         2.85863464956639   -2.52448667459233   -2.42698620206318
H         3.50161543321867   -1.07355966494122   -3.17848122890621
H         4.55198455068236   -2.48412229283980   -2.98534620625828
H        -3.39525497005482   -3.97584506892136   -2.56887872452454
H        -5.18315622830897    1.48482046357117    1.28607079112711
C         0.23589999999996   -1.68140000000004    2.96029999999993
C        -0.98195979717801   -2.17732470961923    3.38846881700560
C         1.29758920375347   -1.58369923411351    3.88839080302308
C        -1.15518969354457   -2.52964269974498    4.73471722496663
H        -1.80358302646961   -2.33232225442328    2.70126273577662
C         1.15776882429705   -1.90272348612430    5.21931598770565
H         2.26258000728004   -1.27024318490552    3.52333148583209
C        -0.07471405349243   -2.38774456020753    5.63855571093252
C        -2.21081922490724   -3.12502371233198    5.47386492709826
H         1.98829753103605   -1.82369598896463    5.90616842266170
N        -0.47213214675619   -2.86587708708829    6.84848247618835
C        -1.76227508702143   -3.33616416447506    6.76075400977337
H        -3.17863817594568   -3.37177360122961    5.08470765285900
H         0.11469003242046   -2.91743182594865    7.66193712400277
C        -2.41879696301001   -3.98340397527816    7.88238054433642
C        -1.80150572330305   -4.09355350650999    9.13287585619525
C        -3.68682179304670   -4.55374541530526    7.73100383913741
C        -2.41860332701926   -4.75532569214468   10.17676844612019
H        -0.82791489924965   -3.66097642143594    9.30595739899649
C        -4.30197324307714   -5.21158270721453    8.77726984827761
H        -4.18760272733960   -4.48569668814908    6.77856737980535
C        -3.67038322553335   -5.32197010641380   10.00603267214168
H        -1.91684471794167   -4.83210082824494   11.13059511565809
H        -5.27972760598968   -5.64803830202574    8.63383813440349
H        -4.14819681861614   -5.84419496922085   10.82119309039389
110
 energy: -159.059262308818 gnorm: 0.035694828314 xtb: 6.4.1 (1a32961)
N        -0.93153511700412   -2.09149244217741   -0.27895530091405
C        -2.21185449472637   -1.68317312956173   -0.37299720425007