94
 energy: -136.933037495290 gnorm: 0.078660846980 xtb: 6.4.0 (f63f532)
N        -0.96510000000000   -2.11530000000000   -0.24090000000000
C        -2.24700000000000   -1.69840000000000   -0.36220000000000
C        -3.14040000000000   -2.36820000000000   -1.21200000000000
C        -2.70220000000000   -3.47560000000000   -1.93050000000000
C        -1.37780000000000   -3.89880000000000   -1.78760000000000
C        -0.54290000000000   -3.18670000000000   -0.93510000000000
H         0.49810000000000   -3.45630000000000   -0.78940000000000
H        -0.99570000000000   -4.76030000000000   -2.32770000000000
H        -4.16500000000000   -2.02890000000000   -1.31830000000000
C        -2.62130000000000   -0.50950000000000    0.44100000000000
N        -1.62600000000000    0.07330000000000    1.16020000000000
C        -1.89680000000000    1.15240000000000    1.91690000000000
C        -3.17230000000000    1.70330000000000    1.99650000000000
C        -4.20510000000000    1.11740000000000    1.26270000000000
C        -3.92610000000000    0.00250000000000    0.47820000000000
H        -4.71960000000000   -0.46420000000000   -0.09520000000000
H        -3.34630000000000    2.57510000000000    2.62070000000000
H        -1.04450000000000    1.57420000000000    2.43690000000000
Ir        0.42150000000000   -0.81650000000000    0.91330000000000
H         0.87260000000000   -2.23030000000000    1.54050000000000
B         0.50670000000000    0.41560000000000   -0.81540000000000
O         0.19500000000000   -0.04700000000000   -2.09150000000000
C         0.00650000000000    1.10040000000000   -2.95430000000000
C         0.49020000000000    0.74740000000000   -4.35780000000000
H         1.51610000000000    0.37380000000000   -4.33700000000000
H         0.44730000000000    1.62240000000000   -5.01670000000000
H        -0.14740000000000   -0.03390000000000   -4.78430000000000
C        -1.50120000000000    1.39560000000000   -2.96670000000000
H        -1.75370000000000    2.21460000000000   -3.64850000000000
H        -2.03200000000000    0.49450000000000   -3.28930000000000
H        -1.85170000000000    1.65210000000000   -1.96220000000000
C         0.84230000000000    2.20670000000000   -2.22040000000000
O         0.75200000000000    1.78260000000000   -0.83690000000000
C         2.32930000000000    2.18620000000000   -2.59900000000000
H         2.74130000000000    1.18500000000000   -2.45750000000000
H         2.48870000000000    2.51300000000000   -3.63180000000000
H         2.87200000000000    2.86270000000000   -1.93200000000000
C         0.28440000000000    3.62290000000000   -2.33660000000000
H        -0.72650000000000    3.69040000000000   -1.92910000000000
H         0.92130000000000    4.31480000000000   -1.77610000000000
H         0.26430000000000    3.94810000000000   -3.38320000000000
B         1.56300000000000    0.60960000000000    1.84840000000000
O         2.92780000000000    0.55230000000000    2.15020000000000
C         3.36330000000000    1.88660000000000    2.50260000000000
C         4.53140000000000    1.78590000000000    3.47740000000000
H         4.27910000000000    1.16090000000000    4.33690000000000
H         5.39390000000000    1.33790000000000    2.97340000000000
H         4.82390000000000    2.77870000000000    3.83820000000000
C         3.79700000000000    2.56850000000000    1.19670000000000
H         4.20020000000000    3.57090000000000    1.37680000000000
H         4.56740000000000    1.95560000000000    0.72110000000000
H         2.95240000000000    2.63260000000000    0.50540000000000
C         2.05040000000000    2.50090000000000    3.09320000000000
O         1.03750000000000    1.81620000000000    2.31910000000000
C         1.89100000000000    4.00450000000000    2.88650000000000
H         1.87290000000000    4.25440000000000    1.82410000000000
H         0.94940000000000    4.34260000000000    3.33170000000000
H         2.71080000000000    4.55150000000000    3.36630000000000
C         1.82470000000000    2.13200000000000    4.56520000000000
H         1.92610000000000    1.05330000000000    4.71320000000000
H         2.52610000000000    2.65280000000000    5.22540000000000
H         0.80630000000000    2.41580000000000    4.84900000000000
B         2.27820000000000   -1.33090000000000    0.17410000000000
O         2.89460000000000   -2.57740000000000    0.38450000000000
C         4.26930000000000   -2.48200000000000   -0.07210000000000
C         5.10900000000000   -2.05380000000000    1.14010000000000
H         4.76350000000000   -1.08740000000000    1.51750000000000
H         4.98050000000000   -2.79470000000000    1.93590000000000
H         6.17420000000000   -1.99290000000000    0.89300000000000
C         4.71950000000000   -3.84660000000000   -0.58470000000000
H         4.75280000000000   -4.56130000000000    0.24420000000000
H         5.72330000000000   -3.78370000000000   -1.02010000000000
H         4.03500000000000   -4.23600000000000   -1.34170000000000
C         4.16440000000000   -1.36220000000000   -1.16300000000000
O         3.08520000000000   -0.55030000000000   -0.65400000000000
C         5.40720000000000   -0.48870000000000   -1.31550000000000
H         6.27320000000000   -1.09010000000000   -1.61530000000000
H         5.23300000000000    0.26930000000000   -2.08590000000000
H         5.64270000000000    0.02650000000000   -0.38240000000000
C         3.71800000000000   -1.89830000000000   -2.53110000000000
H         2.82530000000000   -2.52160000000000   -2.42740000000000
H         3.46090000000000   -1.05250000000000   -3.17550000000000
H         4.50570000000000   -2.48290000000000   -3.01790000000000
H        -3.38500000000000   -4.00130000000000   -2.59310000000000
H        -5.21400000000000    1.52080000000000    1.29960000000000
C         0.23590000000000   -1.68140000000000    2.96030000000000
N        -0.96505588877883   -2.07295878259082    3.37954498627036
C         1.35697558324221   -1.79854526525917    3.80111006672105
N        -1.12962613739023   -2.55903263700072    4.60373925913704
C         1.20312725856125   -2.35394650603307    5.05276857631757
H         2.32945160822243   -1.50357809764195    3.43063214765762
C        -0.09036895996705   -2.72771845931676    5.40714407432331
H         2.04311148543001   -2.52742982272387    5.71255751518316
H        -0.31113457419026   -3.19828532940381    6.35660061740986
94
 energy: -136.940077601073 gnorm: 0.048587182641 xtb: 6.4.0 (f63f532)
N        -0.95754850414710   -2.09689327805280   -0.25795039346883
C        -2.23556011568905   -1.68937784651164   -0.36487254318673
C        -3.13206224406033   -2.36217096226970   -1.20373822058201
C        -2.70324557197920   -3.46416825323392   -1.92041228745026
C        -1.38449795627774   -3.88402529385965   -1.78206927403044
C        -0.55256403899952   -3.16769797399425   -0.94290869558999
H         0.48155649621197   -3.44769297319749   -0.79532071182053
H        -1.00861740761080   -4.74405637128052   -2.31771122299227
H        -4.15271738867609   -2.02701470517812   -1.30607666741998
C        -2.60712464377087   -0.51298397722255    0.43757758949394
N        -1.61534480484311    0.07097929486027    1.14367752749260
C        -1.89624778943566    1.13737273059402    1.89524622788346
C        -3.16445705699689    1.68433159680985    1.98601205876103
C        -4.19407725572506    1.10049518805551    1.25900302828303
C        -3.91094165994513   -0.00632395087536    0.47931318230143
H        -4.70205375679290   -0.47017338905279   -0.08947062178861
H        -3.33971530647202    2.54801454865597    2.61211988269672
H        -1.05373362118784    1.55951278706266    2.42192419053620
Ir        0.42150000000000   -0.81650000000000    0.91330000000000
H         0.87260000000000   -2.23030000000000    1.54050000000000
B         0.48804341908232    0.42468151250608   -0.79019347421450
O         0.17550105663536   -0.03468424916322   -2.06266488807849
C         0.00963586886839    1.09735410739438   -2.94323635142308
C         0.48879082246709    0.74810056445763   -4.34822666281700
H         1.50784465088067    0.37161624417492   -4.32728114052349
H         0.44354175476207    1.62362027330765   -4.99649868725509
H        -0.14995432636741   -0.02787772504459   -4.76847813195852
C        -1.49453176920315    1.39925750879168   -2.96879336838749
H        -1.73320518223280    2.21228613063348   -3.65274040765198
H        -2.02415476742205    0.50203230027633   -3.28872279158631
H        -1.84099321076431    1.65348389409926   -1.96697273600164
C         0.83146368002591    2.20727301829306   -2.21200012248780
O         0.75570083099619    1.77977640070954   -0.83462593976387
C         2.31400641143323    2.19139654590976   -2.59966460388863
H         2.71845700309383    1.19229841610321   -2.45023519438310
H         2.46531598654941    2.51313505838496   -3.62928818160090
H         2.85628644773791    2.86612948523625   -1.93826424872045
C         0.27966950737151    3.62329026318165   -2.33824673769587
H        -0.72352552928081    3.69167506880483   -1.92575895663631
H         0.91920910549196    4.30699875987634   -1.78155351418451
H         0.26174805022002    3.93602025681369   -3.38233069159619
B         1.56386554277954    0.61903896408065    1.85431947883503
O         2.92376464057933    0.56481658057526    2.13991471738508
C         3.36379340598797    1.88700611275045    2.50995300999613
C         4.53394177343725    1.78883536790914    3.48021812784254
H         4.28241447615179    1.16111939687652    4.33114098902157
H         5.38874423481453    1.34454335544751    2.97201049652842
H         4.81663433595544    2.77912880661499    3.83584386660656
C         3.79882554160884    2.57326996182944    1.21086342946306
H         4.20013168623890    3.56889211030209    1.39487754204320
H         4.56273183076841    1.96172911641230    0.73372681901165
H         2.95030308704810    2.62564957496146    0.52996208094458
C         2.05400225058995    2.50572160844521    3.09032167892013
O         1.04096423703045    1.81013013067245    2.33717686386069
C         1.89444561701697    4.00753214884095    2.89029076400088
H         1.86861379268649    4.25043987088867    1.83190845324285
H         0.95671470768991    4.33571903988641    3.33687461926790
H         2.71488975493871    4.54377279373527    3.36643603371183
C         1.83274252184125    2.14062573096025    4.56254008357254
H         1.93547183654750    1.06472127524443    4.70083951115685
H         2.53356543207366    2.66154018680878    5.21230465562037
H         0.81785272610764    2.41783299341308    4.84710725989047
B         2.27820000000000   -1.33090000000000    0.17410000000000
O         2.90292915814884   -2.56062132778415    0.39338142265724
C         4.26677524602850   -2.48296745045966   -0.07850493768183
C         5.11177142571430   -2.05813222056835    1.12710636696602
H         4.75612753259726   -1.09759104074347    1.49803326318294
H         4.98142202877113   -2.79423655146980    1.91985194778259
H         6.16920649140916   -1.99784991375118    0.87476086751226
C         4.72089784446996   -3.84503596734986   -0.58890131034152
H         4.75110093847086   -4.55003777153397    0.24060342498387
H         5.71831537084986   -3.77320779882844   -1.02177522137385
H         4.03460248496465   -4.23199525190013   -1.33728178599014
C         4.16631663150545   -1.35988162476407   -1.15845439809614
O         3.07422120450400   -0.56360628832506   -0.66100053266117
C         5.40923597672697   -0.49107292855975   -1.31631968638070
H         6.26537406443910   -1.09652714954560   -1.61267636442194
H         5.23012465747960    0.25999761465884   -2.08440254333563
H         5.63747662195119    0.02358246011951   -0.38745707625643
C         3.72859359837480   -1.89866382898227   -2.52642527224061
H         2.83659462395837   -2.51418483939294   -2.41790038059889
H         3.47103072113899   -1.05680930744658   -3.16764641786294
H         4.51859582896828   -2.47534498983713   -3.00465287870007
H        -3.38326579911971   -3.98866389418309   -2.57789141589181
H        -5.19819661279985    1.50150156474515    1.29883097251477
C         0.23590000000000   -1.68140000000000    2.96029999999999
N        -0.96282213758907   -2.07002157243911    3.37540063942126
C         1.35719479963111   -1.79239494984207    3.81314081205776
N        -1.13578075152132   -2.54787206601459    4.59252109571027
C         1.19109852876797   -2.34233202165777    5.06184009847961
H         2.32998014990565   -1.49711512886319    3.44776766623476
C        -0.11009090987337   -2.71501631808570    5.40380064793458
H         2.02378166859466   -2.51424549714521    5.72983630196541
H        -0.34046239415265   -3.18267006901123    6.35211273972493
94
 energy: -136.942232532566 gnorm: 0.040278996750 xtb: 6.4.0 (f63f532)
N        -0.94565031605166   -2.08955317646157   -0.26792520145080
C        -2.22112968685282   -1.68419118309108   -0.36586541533163
C        -3.12427712043193   -2.35516123536321   -1.19776546396259
C        -2.70544352744578   -3.45478657794258   -1.91621302907261
C        -1.38741393808693   -3.87502888825118   -1.78425271504455
C        -0.55375950931684   -3.15790896016748   -0.95216603546535
H         0.47941983597691   -3.44184409940048   -0.81515688146656
H        -1.01863160557354   -4.73604167588790   -2.31674556688085
H        -4.14399215241698   -2.02188805635733   -1.28959395264811
C        -2.58911118488792   -0.51689505881730    0.43471443975651
N        -1.60134038807364    0.06386975887182    1.14030904941538
C        -1.88963667735442    1.12361897976072    1.88714700003133
C        -3.15484005093522    1.66870504946261    1.98283212078201
C        -4.18386039247523    1.08393646954656    1.25731246614408
C        -3.89429827691230   -0.01561730859620    0.47689874383582
H        -4.68277359619473   -0.48288061555190   -0.08792984293670
H        -3.33169862769701    2.52646590682766    2.61100532342816
H        -1.05337008853294    1.55416846910079    2.41384522817413
Ir        0.42150000000000   -0.81650000000000    0.91330000000000
H         0.87260000000000   -2.23030000000000    1.54050000000000
B         0.49372108593725    0.43489893355974   -0.76826311828162
O         0.15578516300028   -0.02413089608783   -2.03232701288131
C         0.00394469037506    1.09582844511765   -2.92248764454571
C         0.48700923618454    0.74230604385529   -4.32545123501652
H         1.50241541756574    0.36257020177132   -4.30628127419938
H         0.44115637468748    1.62120065825836   -4.96337779507250
H        -0.15566578700547   -0.02753400479812   -4.74409666740364
C        -1.49853643251699    1.40654036038462   -2.96643998789839
H        -1.71938169261088    2.21594998079131   -3.65550904289858
H        -2.02723277446955    0.51169772308553   -3.28741169834955
H        -1.84701124631376    1.66337008511441   -1.96838969697451
C         0.82259987638670    2.20823749082458   -2.19825528151230
O         0.75976408992719    1.78393304315118   -0.82566582816479
C         2.30235808176410    2.19827188913244   -2.59698527943977
H         2.70417214597846    1.20084938772581   -2.44114814312661
H         2.43975965974164    2.51304301569935   -3.62739691263591
H         2.84448983024415    2.87741202883844   -1.94378511126120
C         0.26738029614489    3.62246515283600   -2.33244799497720
H        -0.73139243558872    3.69580681530008   -1.91590516233521
H         0.91203645918947    4.30473983057955   -1.78520577854124
H         0.24948713753832    3.91898719666388   -3.37766767584999
B         1.56486090715562    0.62404139302042    1.86710192071207
O         2.92188992401353    0.57415315812971    2.13216886283054
C         3.36305806864647    1.88756640576810    2.51419098746513
C         4.53298580407402    1.78909153534944    3.48547668312919
H         4.28595521128717    1.15706142964290    4.33150163751141
H         5.38478066585780    1.35202214353947    2.97188592765611
H         4.80593315891312    2.77902192270372    3.83877299756409
C         3.80134228336897    2.58327840966041    1.22178081482335
H         4.19920867506846    3.57494521731481    1.41336522646170
H         4.56412564366000    1.97453447659938    0.74414118543296
H         2.95075818092997    2.62957836597734    0.54619639684458
C         2.05596609234536    2.50598497427335    3.09405846402662
O         1.04400057950722    1.80344085326773    2.35503824448573
C         1.89777014997705    4.00749374093078    2.89198734611786
H         1.86365866039119    4.24847522476756    1.83567660517555
H         0.96497050603275    4.33133125184234    3.34491476394391
H         2.72162050106347    4.53522711589017    3.36334599193015
C         1.84510491292023    2.14917342811057    4.57063472608830
H         1.95115041231983    1.07475540592935    4.70320073615198
H         2.54812222184172    2.67384039051676    5.20928576775420
H         0.83196295366461    2.42227637854709    4.85618296987627
B         2.27819999999999   -1.33090000000000    0.17410000000000
O         2.90715762090568   -2.54750094321158    0.40328426663975
C         4.26127115530489   -2.48011949882296   -0.08005818417938
C         5.11924303626933   -2.05931546874098    1.11750391341151
H         4.75873699804981   -1.10194674350636    1.48606622271021
H         4.99093322015702   -2.79456898578461    1.90772175752843
H         6.17064186895407   -1.99953953135241    0.85512409957177
C         4.71371012443649   -3.84152095652216   -0.59464231331401
H         4.74729829242188   -4.54073496186140    0.23569336991661
H         5.70657151563378   -3.75994070163408   -1.02731154323256
H         4.02662891173788   -4.22955367113220   -1.33808725601711
C         4.16142083124218   -1.35882419498539   -1.15762552686781
O         3.06123518142839   -0.57297673828990   -0.66948206335549
C         5.40513635351009   -0.49084472559594   -1.31236988841990
H         6.25346825476662   -1.10318382561765   -1.60392098540461
H         5.22632394991046    0.25337545252980   -2.08309970668022
H         5.63063071172670    0.02608562234681   -0.38693534375007
C         3.73787925414408   -1.90065869095195   -2.52933228329808
H         2.84714962954725   -2.51363890201087   -2.41985523009563
H         3.48337943825696   -1.06033288561426   -3.17017193884525
H         4.53413969737077   -2.47227017750139   -2.99532272217363
H        -3.38852454285088   -3.97939565128200   -2.56580199832455
H        -5.18719688751414    1.47897146815746    1.30112040088477
C         0.23590000000001   -1.68140000000001    2.96029999999997
N        -0.96501194285279   -2.06536229685539    3.36366358858332
C         1.35081104520409   -1.78340154407536    3.83173528484764
N        -1.15502334525721   -2.53083086938157    4.57775624605052
C         1.16492105256135   -2.32299426361905    5.07962986562196
H         2.32571294071906   -1.48632317113447    3.47564299810404
C        -0.14561581143234   -2.69298644236825    5.40451804543477
H         1.98581858923095   -2.48813292264132    5.76371649062516
H        -0.38956359460375   -3.15316174744778    6.35302931729326
94
 energy: -136.943320383229 gnorm: 0.040125724717 xtb: 6.4.0 (f63f532)
N        -0.93106285862262   -2.08552709420896   -0.28111853527259
C        -2.20789287585245   -1.68203351564885   -0.36898851271637
C        -3.11814607672768   -2.35342015929998   -1.19367570211540
C        -2.70685881031736   -3.45326305648791   -1.91436857745455
C        -1.38652963447639   -3.87289096363441   -1.79212219329473
C        -0.54656004460974   -3.15305150789642   -0.96845893105065
H         0.48724810779260   -3.44029947923864   -0.84095421312998
H        -1.02325416131630   -4.73523149474931   -2.32475646909370
H        -4.13808082886863   -2.01941746672037   -1.27635989697420
C        -2.57396153548200   -0.52002771647002    0.43340020692599
N        -1.58702870500870    0.06222610792746    1.13858547261054
C        -1.88006443529795    1.11945684416810    1.88531057514910
C        -3.14690869700414    1.65900189635887    1.98628377204447
C        -4.17634827777195    1.07065908441977    1.26177602418333
C        -3.88167827028694   -0.02428807160149    0.47849492982298
H        -4.66747226937387   -0.49394771693288   -0.08726204993173
H        -3.32589015276026    2.51301337588221    2.61741598068011
H        -1.04798382996697    1.55518883307464    2.41481509610415
Ir        0.42150000000000   -0.81650000000000    0.91330000000000
H         0.87260000000000   -2.23030000000000    1.54050000000000
B         0.47719882129368    0.45122694114540   -0.74652400287971
O         0.13172798461786   -0.01336629521366   -2.00594491547107
C        -0.00692545331040    1.09770446245176   -2.90298747163210
C         0.48315222533192    0.73464368093918   -4.30196787951280
H         1.49601296085450    0.34930968851646   -4.27762144589981
H         0.44355579680511    1.61394368866381   -4.93873331552590
H        -0.16284868397908   -0.03195759108648   -4.72054957217717
C        -1.50827210421948    1.41639820365341   -2.96335958736574
H        -1.71399163922344    2.22383679268541   -3.65841411397153
H        -2.03745491973553    0.52299517950260   -3.28637742825241
H        -1.86464276137340    1.67898142174393   -1.96994525180311
C         0.81245327154752    2.21239021641788   -2.18314447205997
O         0.75989251139461    1.79430305444603   -0.81188981185353
C         2.29023630636745    2.20522276305458   -2.59276857187693
H         2.69455419220725    1.20994136436313   -2.43114872065626
H         2.41679794397496    2.51227595058353   -3.62629011686761
H         2.83362538496485    2.89166050543905   -1.94878834550885
C         0.25488601098479    3.62599216622614   -2.32388118194437
H        -0.74118941812867    3.70256777905460   -1.90228990266783
H         0.90352877823795    4.31230797594478   -1.78698723508759
H         0.23153657355279    3.90985055061988   -3.37201828121860
B         1.56615765121009    0.62835680915405    1.87254586735428
O         2.92270314947692    0.58009127688940    2.12422876100015
C         3.36365122796377    1.88808802379437    2.51727042538604
C         4.53391850907808    1.78733524819491    3.48958602423840
H         4.29018500253299    1.14935392371240    4.33172381438087
H         5.38723807666188    1.35803298333409    2.97259736909676
H         4.79969933422458    2.77719679419604    3.84705996116919
C         3.80447657866501    2.59435117310515    1.23053459095176
H         4.19833585747943    3.58505305429798    1.43109039941313
H         4.57016145311006    1.99057916946310    0.75173309989627
H         2.95453108289282    2.64101073218738    0.55477625453165
C         2.05781516743908    2.50523631042413    3.10078227060378
O         1.04402254666669    1.79729856306472    2.37355960518505
C         1.89809342343132    4.00707765608459    2.89561339673639
H         1.85493381625836    4.24610762200969    1.83936076915900
H         0.96994568749261    4.33185789844629    3.35667082432308
H         2.72743253760685    4.53225170467828    3.35897225462349
C         1.85847099320834    2.15650363616764    4.58206958428352
H         1.96865007880982    1.08317199793206    4.71709677867987
H         2.56521080441379    2.68716063602279    5.21057572618478
H         0.84669423079437    2.42813842444044    4.87224738088905
B         2.27819999999999   -1.33090000000000    0.17410000000000
O         2.91114221120069   -2.53939184700055    0.41412187343475
C         4.25775260933812   -2.47748187087113   -0.08095065573065
C         5.12844859859017   -2.05890984051366    1.10941606209754
H         4.76943235281286   -1.10242808090698    1.48079083940867
H         5.00610179400647   -2.79527587679699    1.89896337574107
H         6.17630194428463   -1.99937144975941    0.83599532974009
C         4.70579498609326   -3.84022815843458   -0.59878900869488
H         4.74468050018078   -4.53816721058633    0.23188333731075
H         5.69553116653798   -3.75459956400877   -1.03639516863362
H         4.01498562052984   -4.22857659768601   -1.33818320300937
C         4.15668077930791   -1.35756831789933   -1.15949188255947
O         3.05004397108632   -0.57820234109636   -0.68013821883676
C         5.39984846019077   -0.48693096282205   -1.30981140073222
H         6.24730433818273   -1.10287925158945   -1.59451057644067
H         5.22402909367160    0.25308019221999   -2.08474719488081
H         5.62091614432151    0.03332454198277   -0.38556889014203
C         3.74631223037552   -1.90282576335479   -2.53489476772461
H         2.85655559864026   -2.51733128034062   -2.43071257324773
H         3.49636316064816   -1.06356639983190   -3.17846708463439
H         4.54944977816199   -2.47207320200907   -2.99033460215773
H        -3.39509717957022   -3.97768290800777   -2.55796910544549
H        -5.18130405884885    1.45971344261477    1.30889856833435
C         0.23590000000001   -1.68140000000001    2.96029999999995
N        -0.97094592423990   -2.06001790105011    3.34735467583933
C         1.33840399752774   -1.77341909634703    3.85234517150090
N        -1.18309345100341   -2.51113815230116    4.56281842702665
C         1.12902034078077   -2.29835531888265    5.10224321077649
H         2.31751197161065   -1.47627588884109    3.50817977263361
C        -0.18935652436514   -2.66455982102379    5.40885968249890
H         1.93602696672153   -2.45389889763192    5.80583723179200
H        -0.44865252271280   -3.11319973028438    6.35897223617827
94
 energy: -136.944558700771 gnorm: 0.040059710964 xtb: 6.4.0 (f63f532)
N        -0.91401787246395   -2.08567925373707   -0.29359431945726
C        -2.19334103929536   -1.68359220685188   -0.37099252693918
C        -3.11007224674638   -2.35531472239518   -1.18959147812764
C        -2.70582802032390   -3.45533962024640   -1.91351770463918
C        -1.38209384545917   -3.87270299242610   -1.80414764924770
C        -0.53452058662415   -3.15071738548442   -0.98871333637849
H         0.50198492117475   -3.43735645936617   -0.87634798581835
H        -1.02392026491521   -4.73563350152780   -2.33965837254372
H        -4.13084371557996   -2.02065177659780   -1.26191846376991
C        -2.55786069551627   -0.52564826216601    0.43482106499792
N        -1.57135705546655    0.05665759737808    1.14341636305846
C        -1.86778609412621    1.11432545249074    1.89016570685062
C        -3.13673182650431    1.64875794905663    1.99415018873845
C        -4.16665088238748    1.05714897729286    1.26991057668751
C        -3.86726195082931   -0.03260079341361    0.48167709959327
H        -4.65043656060292   -0.50417936452724   -0.08641349873559
H        -3.31763834635521    2.50002131169017    2.62841390948150
H        -1.03850652336870    1.55688674102031    2.41959401063341
Ir        0.42150000000000   -0.81650000000001    0.91330000000000
H         0.87260000000000   -2.23030000000000    1.54050000000000
B         0.47737750877242    0.46882617646358   -0.72312884108079
O         0.10182900120582    0.00158216811490   -1.97352053211806
C        -0.02392011601867    1.10341906979635   -2.87691789936614
C         0.47497248889110    0.72361503099291   -4.26955698058023
H         1.48392955987528    0.32775753383556   -4.23265216643072
H         0.44968038422924    1.59936287133495   -4.91260648959759
H        -0.17540774186519   -0.04017993394617   -4.68739575194701
C        -1.52339374805149    1.43325188867799   -2.95711316374433
H        -1.71244514355615    2.23822863950494   -3.66012575160079
H        -2.05467991561549    0.54171671547169   -3.28262721235164
H        -1.89257290331952    1.70495307140508   -1.97037255734072
C         0.80019650769066    2.22174494088374   -2.16447322791956
O         0.76261025885521    1.80899366923099   -0.79396277260588
C         2.27561515558749    2.21827023958717   -2.58685498637574
H         2.68651268081905    1.22671699736150   -2.41673935635520
H         2.38981056452177    2.51347354441976   -3.62545463977152
H         2.82067098629164    2.91628629081726   -1.95610038217686
C         0.23686457322581    3.63377882193705   -2.31022971646362
H        -0.75522076586931    3.71249954541315   -1.87862783294884
H         0.89028432968580    4.32810114363669   -1.78844922387747
H         0.20076272871423    3.90531734372326   -3.36177456945276
B         1.56732018242016    0.63003199910776    1.88188704303338
O         2.92649956539853    0.58711072902929    2.11341284552721
C         3.36664332280090    1.88993669264110    2.52024561952867
C         4.53752539312661    1.78318391933033    3.49312973817009
H         4.29748713803979    1.13480233846579    4.32896837882677
H         5.39482767715086    1.36529395746685    2.97232472843392
H         4.79598721776607    2.77160550811093    3.86175574919971
C         3.81059300215409    2.61112694545088    1.24137125438967
H         4.19847758051592    3.60196562018075    1.45463824259823
H         4.58263607174557    2.01612651408625    0.76085128816188
H         2.96370678807527    2.66130156002469    0.56178337744591
C         2.06212804928856    2.50422505075136    3.11270744489220
O         1.04433101627553    1.78900078389098    2.40064629705568
C         1.89799852976041    4.00598944111131    2.90077076645736
H         1.83994486361875    4.24060104233028    1.84361371642236
H         0.97675275722956    4.33446873894052    3.37436870144572
H         2.73517886592982    4.53295875072781    3.34946819258397
C         1.87844206167738    2.16750946892435    4.60008620370234
H         1.99381908124462    1.09580372394028    4.74431048583196
H         2.59052529278464    2.70732874054067    5.21536637101672
H         0.86866692986392    2.43903753712616    4.89808769897881
B         2.27819999999998   -1.33090000000000    0.17410000000001
O         2.91897341358316   -2.53026893545799    0.42847380968620
C         4.25717082176578   -2.47359243828850   -0.08176866972575
C         5.14456920303419   -2.05767789471083    1.09896031577619