      -----------------------------------------------------------      
     |                   =====================                   |     
     |                           x T B                           |     
     |                   =====================                   |     
     |                         S. Grimme                         |     
     |          Mulliken Center for Theoretical Chemistry        |     
     |                    University of Bonn                     |     
      -----------------------------------------------------------      

   * xtb version 6.4.0 (f63f532) compiled by 'knkr256@seskscpg008.prim.scp' on 2021-04-09

   xtb is free software: you can redistribute it and/or modify it under
   the terms of the GNU Lesser General Public License as published by
   the Free Software Foundation, either version 3 of the License, or
   (at your option) any later version.
   
   xtb is distributed in the hope that it will be useful,
   but WITHOUT ANY WARRANTY; without even the implied warranty of
   MERCHANTABILITY or FITNESS FOR A PARTICULAR PURPOSE.  See the
   GNU Lesser General Public License for more details.
   
   Cite this work as:
   * C. Bannwarth, E. Caldeweyher, S. Ehlert, A. Hansen, P. Pracht,
     J. Seibert, S. Spicher, S. Grimme, WIREs Comput. Mol. Sci., 2020, 11,
     e01493. DOI: 10.1002/wcms.1493
   
   for GFN2-xTB:
   * C. Bannwarth, S. Ehlert and S. Grimme., J. Chem. Theory Comput., 2019,
     15, 1652-1671. DOI: 10.1021/acs.jctc.8b01176
   for GFN1-xTB:
   * S. Grimme, C. Bannwarth, P. Shushkov, J. Chem. Theory Comput., 2017,
     13, 1989-2009. DOI: 10.1021/acs.jctc.7b00118
   for GFN0-xTB:
   * P. Pracht, E. Caldeweyher, S. Ehlert, S. Grimme, ChemRxiv, 2019, preprint.
     DOI: 10.26434/chemrxiv.8326202.v1
   for GFN-FF:
   * S. Spicher and S. Grimme, Angew. Chem. Int. Ed., 2020, 59, 15665-15673.
     DOI: 10.1002/anie.202004239
   
   for DFT-D4:
   * E. Caldeweyher, C. Bannwarth and S. Grimme, J. Chem. Phys., 2017,
     147, 034112. DOI: 10.1063/1.4993215
   * E. Caldeweyher, S. Ehlert, A. Hansen, H. Neugebauer, S. Spicher,
     C. Bannwarth and S. Grimme, J. Chem. Phys., 2019, 150, 154122.
     DOI: 10.1063/1.5090222
   * E. Caldeweyher, J.-M. Mewes, S. Ehlert and S. Grimme, Phys. Chem. Chem. Phys.
     2020, 22, 8499-8512. DOI: 10.1039/D0CP00502A
   
   for sTDA-xTB:
   * S. Grimme and C. Bannwarth, J. Chem. Phys., 2016, 145, 054103.
     DOI: 10.1063/1.4959605
   
   in the mass-spec context:
   * V. Asgeirsson, C. Bauer and S. Grimme, Chem. Sci., 2017, 8, 4879.
     DOI: 10.1039/c7sc00601b
   * J. Koopman and S. Grimme, ACS Omega 2019, 4, 12, 15120-15133.
     DOI: 10.1021/acsomega.9b02011
   
   for metadynamics refer to:
   * S. Grimme, J. Chem. Theory Comput., 2019, 155, 2847-2862
     DOI: 10.1021/acs.jctc.9b00143
   
   for SPH calculations refer to:
   * S. Spicher and S. Grimme, J. Chem. Theory Comput., 2021, 17, 1701-1714
     DOI: 10.1021/acs.jctc.0c01306
   
   with help from (in alphabetical order)
   P. Atkinson, C. Bannwarth, F. Bohle, G. Brandenburg, E. Caldeweyher
   M. Checinski, S. Dohm, S. Ehlert, S. Ehrlich, I. Gerasimov, J. Koopman
   C. Lavinge, S. Lehtola, F. März, M. Müller, F. Musil, H. Neugebauer
   J. Pisarek, P. Pracht, J. Seibert, P. Shushkov, S. Spicher, M. Stahn
   T. Strunk, J. Stückrath, T. Rose, and J. Unsleber
   
 * started run on 2021/10/08 at 07:15:32.772     

           -------------------------------------------------
          |                Calculation Setup                |
           -------------------------------------------------

          program call               : xtb xtbopt.xyz --sp --alpb thf -P 6
          hostname                   : seskscpg010.prim.scp
          coordinate file            : xtbopt.xyz
          omp threads                :                     6
          number of atoms            :                    98
          number of electrons        :                   256
          charge                     :                     0
          spin                       :                   0.0
          first test random number   :      0.13060533539460

   ID    Z sym.   atoms
    1    7 N      1, 11, 88
    2    6 C      2-6, 10, 12-15, 23, 24, 28, 32, 34, 38, 44, 45, 49, 53, 55,
                  59, 65, 66, 70, 74, 76, 80, 86, 87, 89, 91, 92, 94
    3    1 H      7-9, 16-18, 20, 25-27, 29-31, 35-37, 39-41, 46-48, 50-52,
                  56-58, 60-62, 67-69, 71-73, 77-79, 81-85, 90, 93, 95-98
    4   77 Ir     19
    5    5 B      21, 42, 63
    6    8 O      22, 33, 43, 54, 64, 75

molecular fragmentation (1/2 indicates fragments):
111111111111111111111111111111111111111111111111111111111111111111111111
11111111111112222222222222
# atoms in fragment 1/2:    85    13
 fragment masses (1/2) :      730.32       92.12
CMA distance (Bohr)    :   8.918
constraining FC (au)   :  0.0500

           -------------------------------------------------
          |                 G F N 2 - x T B                 |
           -------------------------------------------------

        Reference                      10.1021/acs.jctc.8b01176
      * Hamiltonian:
        H0-scaling (s, p, d)           1.850000    2.230000    2.230000
        zeta-weighting                 0.500000
      * Dispersion:
        s8                             2.700000
        a1                             0.520000
        a2                             5.000000
        s9                             5.000000
      * Repulsion:
        kExp                           1.500000    1.000000
        rExp                           1.000000
      * Coulomb:
        alpha                          2.000000
        third order                    shell-resolved
        anisotropic                    true
        a3                             3.000000
        a5                             4.000000
        cn-shift                       1.200000
        cn-exp                         4.000000
        max-rad                        5.000000

      * Solvation model:               ALPB
        Solvent                        thf
        Parameter file                 internal GFN2-xTB/ALPB
        Dielectric constant                7.6000E+00
        Reference state                gsolv [1 M gas/solution]
        Free energy shift                  5.3248E-03 Eh       3.3414E+00 kcal/mol
        Temperature                        2.9815E+02 K
        Density                            8.8300E-01 kg/L
        Solvent mass                       7.2106E+01 g/mol
        Interaction kernel             P16
        Born radius scaling (c1)           1.7311E+00
        Born radii integrator          GBOBC
        Born offset                        0.0000E+00 a0       0.0000E+00 AA
        H-bond correction              true
        Ion screening                  false
        Surface tension                    1.0000E-05 Eh       1.5569E+01 dyn/cm
        Grid points                               230 per atom
q/qsh data taken from xtbrestart
CAMM data taken from xtbrestart

          ...................................................
          :                      SETUP                      :
          :.................................................:
          :  # basis functions                 245          :
          :  # atomic orbitals                 244          :
          :  # shells                          146          :
          :  # electrons                       256          :
          :  max. iterations                   250          :
          :  Hamiltonian                  GFN2-xTB          :
          :  restarted?                       true          :
          :  GBSA solvation                   true          :
          :  PC potential                    false          :
          :  electronic temp.          300.0000000     K    :
          :  accuracy                    1.0000000          :
          :  -> integral cutoff          0.2500000E+02      :
          :  -> integral neglect         0.1000000E-07      :
          :  -> SCF convergence          0.1000000E-05 Eh   :
          :  -> wf. convergence          0.1000000E-03 e    :
          :  Broyden damping             0.4000000          :
          ...................................................

 iter      E             dE          RMSdq      gap      omega  full diag
   1   -141.6784765 -0.141678E+03  0.241E-05    0.87       0.0  T
   2   -141.6784765  0.572697E-10  0.326E-05    0.87     310.0  T
   3   -141.6784765 -0.662226E-10  0.185E-05    0.87     546.1  T

   *** convergence criteria satisfied after 3 iterations ***

         #    Occupation            Energy/Eh            Energy/eV
      -------------------------------------------------------------
         1        2.0000           -0.6731851             -18.3183
       ...           ...                  ...                  ...
       122        2.0000           -0.3527861              -9.5998
       123        2.0000           -0.3417544              -9.2996
       124        2.0000           -0.3293624              -8.9624
       125        2.0000           -0.3198581              -8.7038
       126        2.0000           -0.3141728              -8.5491
       127        2.0000           -0.3092234              -8.4144
       128        2.0000           -0.3062202              -8.3327 (HOMO)
       129        0.0000           -0.2742760              -7.4634 (LUMO)
       130                         -0.2467936              -6.7156
       131                         -0.2438391              -6.6352
       132                         -0.2255260              -6.1369
       133                         -0.2165534              -5.8927
       ...                                ...                  ...
       244                          3.7503490             102.0522
      -------------------------------------------------------------
                  HL-Gap            0.0319442 Eh            0.8692 eV
             Fermi-level           -0.2902282 Eh           -7.8975 eV

 SCC (total)                   0 d,  0 h,  0 min,  0.101 sec
 SCC setup                      ...        0 min,  0.003 sec (  2.684%)
 Dispersion                     ...        0 min,  0.002 sec (  1.559%)
 classical contributions        ...        0 min,  0.000 sec (  0.144%)
 integral evaluation            ...        0 min,  0.025 sec ( 25.327%)
 iterations                     ...        0 min,  0.031 sec ( 30.974%)
 molecular gradient             ...        0 min,  0.039 sec ( 38.698%)
 printout                       ...        0 min,  0.001 sec (  0.556%)

         :::::::::::::::::::::::::::::::::::::::::::::::::::::
         ::                     SUMMARY                     ::
         :::::::::::::::::::::::::::::::::::::::::::::::::::::
         :: total energy            -139.871630286027 Eh    ::
         :: total w/o Gsasa/hb      -139.832465477081 Eh    ::
         :: gradient norm              0.034799485050 Eh/a0 ::
         :: HOMO-LUMO gap              0.869246016726 eV    ::
         ::.................................................::
         :: SCC energy              -141.678476517889 Eh    ::
         :: -> isotropic ES            0.243224855588 Eh    ::
         :: -> anisotropic ES          0.016196692611 Eh    ::
         :: -> anisotropic XC          0.051639965372 Eh    ::
         :: -> dispersion             -0.134120752097 Eh    ::
         :: -> Gsolv                  -0.049511097042 Eh    ::
         ::    -> Gelec               -0.010346288096 Eh    ::
         ::    -> Gsasa               -0.041940309523 Eh    ::
         ::    -> Ghb                 -0.002549314867 Eh    ::
         ::    -> Gshift               0.005324815444 Eh    ::
         :: repulsion energy           1.798881391619 Eh    ::
         :: add. restraining           0.000000000000 Eh    ::
         :: total charge               0.000000000001 e     ::
         :::::::::::::::::::::::::::::::::::::::::::::::::::::

           -------------------------------------------------
          |                Property Printout                |
           -------------------------------------------------

    * Orbital Energies and Occupations

         #    Occupation            Energy/Eh            Energy/eV
      -------------------------------------------------------------
         1        2.0000           -0.6731851             -18.3183
       ...           ...                  ...                  ...
       116        2.0000           -0.3980101             -10.8304
       117        2.0000           -0.3882699             -10.5654
       118        2.0000           -0.3851049             -10.4792
       119        2.0000           -0.3845175             -10.4633
       120        2.0000           -0.3798403             -10.3360
       121        2.0000           -0.3782370             -10.2924
       122        2.0000           -0.3527861              -9.5998
       123        2.0000           -0.3417544              -9.2996
       124        2.0000           -0.3293624              -8.9624
       125        2.0000           -0.3198581              -8.7038
       126        2.0000           -0.3141728              -8.5491
       127        2.0000           -0.3092234              -8.4144
       128        2.0000           -0.3062202              -8.3327 (HOMO)
       129        0.0000           -0.2742760              -7.4634 (LUMO)
       130                         -0.2467936              -6.7156
       131                         -0.2438391              -6.6352
       132                         -0.2255260              -6.1369
       133                         -0.2165534              -5.8927
       134                         -0.2030446              -5.5251
       135                         -0.1832108              -4.9854
       136                         -0.1482591              -4.0343
       137                         -0.1250626              -3.4031
       138                         -0.1200289              -3.2662
       139                         -0.1080889              -2.9412
       ...                                ...                  ...
       244                          3.7503490             102.0522
      -------------------------------------------------------------
                  HL-Gap            0.0319442 Eh            0.8692 eV
             Fermi-level           -0.2902282 Eh           -7.8975 eV

     #   Z          covCN         q      C6AA      α(0)
     1   7 N        2.544    -0.127    23.793     7.244
     2   6 C        2.954     0.074    26.346     8.419
     3   6 C        2.918    -0.045    29.113     8.848
     4   6 C        2.923    -0.023    28.583     8.767
     5   6 C        2.915    -0.046    29.133     8.851
     6   6 C        2.891     0.048    26.917     8.506
     7   1 H        0.926     0.052     2.296     2.369
     8   1 H        0.926     0.054     2.276     2.359
     9   1 H        0.926     0.045     2.385     2.415
    10   6 C        2.953     0.069    26.446     8.435
    11   7 N        2.553    -0.134    23.940     7.267
    12   6 C        2.889     0.041    27.088     8.533
    13   6 C        2.915    -0.046    29.150     8.854
    14   6 C        2.922    -0.027    28.678     8.782
    15   6 C        2.918    -0.046    29.132     8.851
    16   1 H        0.926     0.043     2.408     2.427
    17   1 H        0.926     0.048     2.339     2.392
    18   1 H        0.926     0.074     2.041     2.234
    19  77 Ir       5.935    -0.155   388.041    36.428
    20   1 H        0.977     0.082     1.951     2.183
    21   5 B        2.630     0.405    15.995     6.757
    22   8 O        1.638    -0.407    20.985     6.184
    23   6 C        3.834     0.130    18.454     6.112
    24   6 C        3.755    -0.121    22.878     6.820
    25   1 H        0.925     0.053     2.280     2.361
    26   1 H        0.925     0.045     2.387     2.416
    27   1 H        0.925     0.051     2.303     2.373
    28   6 C        3.754    -0.109    22.641     6.785
    29   1 H        0.925     0.047     2.353     2.399
    30   1 H        0.925     0.042     2.426     2.436
    31   1 H        0.925     0.027     2.626     2.534
    32   6 C        3.841     0.131    18.436     6.108
    33   8 O        1.637    -0.405    20.950     6.178
    34   6 C        3.755    -0.121    22.883     6.821
    35   1 H        0.925     0.052     2.295     2.369
    36   1 H        0.925     0.046     2.373     2.409
    37   1 H        0.925     0.050     2.320     2.382
    38   6 C        3.754    -0.120    22.854     6.817
    39   1 H        0.925     0.046     2.369     2.407
    40   1 H        0.925     0.054     2.275     2.359
    41   1 H        0.925     0.045     2.379     2.412
    42   5 B        2.629     0.407    15.982     6.755
    43   8 O        1.637    -0.376    20.397     6.096
    44   6 C        3.839     0.128    18.480     6.116
    45   6 C        3.755    -0.127    22.988     6.837
    46   1 H        0.925     0.058     2.222     2.331
    47   1 H        0.925     0.056     2.251     2.346
    48   1 H        0.925     0.050     2.325     2.384
    49   6 C        3.755    -0.122    22.896     6.823
    50   1 H        0.925     0.049     2.339     2.391
    51   1 H        0.925     0.047     2.355     2.400
    52   1 H        0.925     0.051     2.303     2.373
    53   6 C        3.835     0.128    18.487     6.117
    54   8 O        1.637    -0.382    20.519     6.115
    55   6 C        3.755    -0.124    22.938     6.829
    56   1 H        0.925     0.053     2.280     2.361
    57   1 H        0.925     0.053     2.278     2.360
    58   1 H        0.925     0.048     2.339     2.392
    59   6 C        3.755    -0.126    22.968     6.834
    60   1 H        0.925     0.054     2.268     2.355
    61   1 H        0.925     0.052     2.297     2.370
    62   1 H        0.925     0.047     2.362     2.403
    63   5 B        2.628     0.405    16.004     6.761
    64   8 O        1.637    -0.375    20.371     6.092
    65   6 C        3.834     0.125    18.530     6.124
    66   6 C        3.755    -0.132    23.098     6.853
    67   1 H        0.925     0.061     2.193     2.316
    68   1 H        0.925     0.056     2.242     2.341
    69   1 H        0.925     0.051     2.309     2.376
    70   6 C        3.755    -0.129    23.033     6.843
    71   1 H        0.925     0.061     2.187     2.313
    72   1 H        0.925     0.051     2.310     2.377
    73   1 H        0.925     0.051     2.306     2.375
    74   6 C        3.829     0.127    18.500     6.120
    75   8 O        1.637    -0.379    20.449     6.104
    76   6 C        3.755    -0.124    22.943     6.830
    77   1 H        0.925     0.051     2.309     2.376
    78   1 H        0.925     0.053     2.282     2.362
    79   1 H        0.925     0.056     2.241     2.341
    80   6 C        3.755    -0.121    22.883     6.821
    81   1 H        0.925     0.040     2.446     2.446
    82   1 H        0.925     0.048     2.344     2.394
    83   1 H        0.925     0.055     2.264     2.353
    84   1 H        0.926     0.051     2.313     2.378
    85   1 H        0.926     0.046     2.366     2.406
    86   6 C        2.805     0.062    26.593     8.448
    87   6 C        2.919    -0.045    29.106     8.847
    88   7 N        1.845    -0.245    27.249     7.736
    89   6 C        2.924    -0.024    28.615     8.772
    90   1 H        0.926     0.023     2.685     2.562
    91   6 C        2.942     0.099    25.800     8.331
    92   6 C        2.917    -0.066    29.631     8.926
    93   1 H        0.925     0.029     2.598     2.521
    94   6 C        3.759    -0.130    23.043     6.843
    95   1 H        0.926     0.036     2.503     2.474
    96   1 H        0.925     0.064     2.154     2.295
    97   1 H        0.925     0.060     2.195     2.317
    98   1 H        0.925     0.061     2.186     2.312

 Mol. C6AA /au·bohr⁶  :     101162.097926
 Mol. C8AA /au·bohr⁸  :    2689993.767791
 Mol. α(0) /au        :        492.677268


Wiberg/Mayer (AO) data.
largest (>0.10) Wiberg bond orders for each atom

 ---------------------------------------------------------------------------
     #   Z sym  total        # sym  WBO       # sym  WBO       # sym  WBO
 ---------------------------------------------------------------------------
     1   7 N    3.400 --     6 C    1.388     2 C    1.306    19 Ir   0.442
     2   6 C    3.978 --     3 C    1.342     1 N    1.306    10 C    1.100
     3   6 C    3.987 --     4 C    1.490     2 C    1.342     9 H    0.962
                             6 C    0.106
     4   6 C    3.984 --     3 C    1.490     5 C    1.375    84 H    0.969
     5   6 C    3.977 --     6 C    1.463     4 C    1.375     8 H    0.969
     6   6 C    3.978 --     5 C    1.463     1 N    1.388     7 H    0.957
                             3 C    0.106
     7   1 H    0.997 --     6 C    0.957
     8   1 H    0.996 --     5 C    0.969
     9   1 H    0.998 --     3 C    0.962
    10   6 C    3.976 --    15 C    1.349    11 N    1.292     2 C    1.100
    11   7 N    3.396 --    12 C    1.375    10 C    1.292    19 Ir   0.437
    12   6 C    3.973 --    13 C    1.467    11 N    1.375    18 H    0.948
                            15 C    0.105
    13   6 C    3.981 --    12 C    1.467    14 C    1.374    17 H    0.969
    14   6 C    3.980 --    15 C    1.483    13 C    1.374    85 H    0.969
    15   6 C    3.989 --    14 C    1.483    10 C    1.349    16 H    0.962
                            12 C    0.105
    16   1 H    0.998 --    15 C    0.962
    17   1 H    0.997 --    13 C    0.969
    18   1 H    0.994 --    12 C    0.948
    19  77 Ir   5.196 --    63 B    0.865    42 B    0.852    21 B    0.712
                            86 C    0.594    20 H    0.525     1 N    0.442
                            11 N    0.437
    20   1 H    0.990 --    19 Ir   0.525    86 C    0.341
    21   5 B    3.275 --    33 O    1.109    22 O    1.094    19 Ir   0.712
    22   8 O    2.194 --    21 B    1.094    23 C    0.942
    23   6 C    3.943 --    24 C    0.996    28 C    0.990    22 O    0.942
                            32 C    0.941
    24   6 C    3.994 --    23 C    0.996    26 H    0.984    27 H    0.983
                            25 H    0.983
    25   1 H    0.997 --    24 C    0.983
    26   1 H    0.997 --    24 C    0.984
    27   1 H    0.997 --    24 C    0.983
    28   6 C    3.997 --    23 C    0.990    31 H    0.985    30 H    0.984
                            29 H    0.984
    29   1 H    0.997 --    28 C    0.984
    30   1 H    0.998 --    28 C    0.984
    31   1 H    0.999 --    28 C    0.985
    32   6 C    3.940 --    38 C    0.997    34 C    0.991    23 C    0.941
                            33 O    0.939
    33   8 O    2.199 --    21 B    1.109    32 C    0.939
    34   6 C    3.994 --    32 C    0.991    36 H    0.984    37 H    0.982
                            35 H    0.981
    35   1 H    0.997 --    34 C    0.981
    36   1 H    0.997 --    34 C    0.984
    37   1 H    0.997 --    34 C    0.982
    38   6 C    3.994 --    32 C    0.997    41 H    0.984    39 H    0.983
                            40 H    0.983
    39   1 H    0.998 --    38 C    0.983
    40   1 H    0.997 --    38 C    0.983
    41   1 H    0.997 --    38 C    0.984
    42   5 B    3.340 --    43 O    1.127    54 O    1.107    19 Ir   0.852
    43   8 O    2.234 --    42 B    1.127    44 C    0.936
    44   6 C    3.936 --    45 C    0.997    49 C    0.991    53 C    0.939
                            43 O    0.936
    45   6 C    3.992 --    44 C    0.997    48 H    0.983    47 H    0.982
                            46 H    0.982
    46   1 H    0.996 --    45 C    0.982
    47   1 H    0.997 --    45 C    0.982
    48   1 H    0.996 --    45 C    0.983
    49   6 C    3.994 --    44 C    0.991    50 H    0.984    51 H    0.982
                            52 H    0.980
    50   1 H    0.997 --    49 C    0.984
    51   1 H    0.997 --    49 C    0.982
    52   1 H    0.997 --    49 C    0.980
    53   6 C    3.937 --    55 C    0.996    59 C    0.992    44 C    0.939
                            54 O    0.933
    54   8 O    2.227 --    42 B    1.107    53 C    0.933
    55   6 C    3.993 --    53 C    0.996    58 H    0.983    57 H    0.983
                            56 H    0.983
    56   1 H    0.997 --    55 C    0.983
    57   1 H    0.997 --    55 C    0.983
    58   1 H    0.996 --    55 C    0.983
    59   6 C    3.994 --    53 C    0.992    62 H    0.983    61 H    0.983
                            60 H    0.980
    60   1 H    0.997 --    59 C    0.980
    61   1 H    0.996 --    59 C    0.983
    62   1 H    0.998 --    59 C    0.983
    63   5 B    3.363 --    64 O    1.119    75 O    1.117    19 Ir   0.865
    64   8 O    2.230 --    63 B    1.119    65 C    0.937
    65   6 C    3.936 --    70 C    0.997    66 C    0.991    74 C    0.937
                            64 O    0.937
    66   6 C    3.992 --    65 C    0.991    69 H    0.983    68 H    0.982
                            67 H    0.979
    67   1 H    0.996 --    66 C    0.979
    68   1 H    0.997 --    66 C    0.982
    69   1 H    0.996 --    66 C    0.983
    70   6 C    3.992 --    65 C    0.997    72 H    0.983    73 H    0.982
                            71 H    0.982
    71   1 H    0.996 --    70 C    0.982
    72   1 H    0.996 --    70 C    0.983
    73   1 H    0.997 --    70 C    0.982
    74   6 C    3.935 --    76 C    0.996    80 C    0.991    65 C    0.937
                            75 O    0.936
    75   8 O    2.235 --    63 B    1.117    74 C    0.936
    76   6 C    3.992 --    74 C    0.996    77 H    0.983    78 H    0.982
                            79 H    0.981
    77   1 H    0.996 --    76 C    0.983
    78   1 H    0.997 --    76 C    0.982
    79   1 H    0.997 --    76 C    0.981
    80   6 C    3.995 --    74 C    0.991    81 H    0.984    83 H    0.983
                            82 H    0.983
    81   1 H    0.998 --    80 C    0.984
    82   1 H    0.997 --    80 C    0.983
    83   1 H    0.996 --    80 C    0.983
    84   1 H    0.997 --     4 C    0.969
    85   1 H    0.997 --    14 C    0.969
    86   6 C    3.937 --    88 N    1.405    87 C    1.353    19 Ir   0.594
                            20 H    0.341
    87   6 C    3.989 --    89 C    1.447    86 C    1.353    90 H    0.964
                            91 C    0.108
    88   7 N    3.096 --    86 C    1.405    91 C    1.402
    89   6 C    3.989 --    87 C    1.447    92 C    1.435    93 H    0.968
    90   1 H    0.999 --    87 C    0.964
    91   6 C    3.972 --    88 N    1.402    92 C    1.388    94 C    1.020
                            87 C    0.108
    92   6 C    3.985 --    89 C    1.435    91 C    1.388    95 H    0.969
    93   1 H    0.998 --    89 C    0.968
    94   6 C    3.993 --    91 C    1.020    96 H    0.983    97 H    0.970
                            98 H    0.968
    95   1 H    0.996 --    92 C    0.969
    96   1 H    0.995 --    94 C    0.983
    97   1 H    0.996 --    94 C    0.970
    98   1 H    0.996 --    94 C    0.968
 ---------------------------------------------------------------------------

Topologies differ in total number of bonds
Writing topology from bond orders to xtbtopo.mol

molecular dipole:
                 x           y           z       tot (Debye)
 q only:        0.446       0.307      -0.388
   full:       -1.171       0.420      -0.807       3.770
molecular quadrupole (traceless):
                xx          xy          yy          xz          yz          zz
 q only:        9.344       1.735      -6.638       5.595       8.741      -2.706
  q+dip:        9.430       5.110      -7.262       1.304      11.324      -2.168
   full:        6.741       5.635      -5.293      -0.488       8.661      -1.448


           -------------------------------------------------
          | TOTAL ENERGY             -139.871630286027 Eh   |
          | GRADIENT NORM               0.034799485050 Eh/α |
          | HOMO-LUMO GAP               0.869246016726 eV   |
           -------------------------------------------------

------------------------------------------------------------------------
 * finished run on 2021/10/08 at 07:15:32.911     
------------------------------------------------------------------------
 total:
 * wall-time:     0 d,  0 h,  0 min,  0.139 sec
 *  cpu-time:     0 d,  0 h,  0 min,  0.809 sec
 * ratio c/w:     5.810 speedup
 SCF:
 * wall-time:     0 d,  0 h,  0 min,  0.102 sec
 *  cpu-time:     0 d,  0 h,  0 min,  0.603 sec
 * ratio c/w:     5.934 speedup

