109
 energy: -157.537575612287 gnorm: 0.077595504968 xtb: 6.4.1 (1a32961)
N        -0.96509999999998   -2.11530000000002   -0.24090000000001
C        -2.24700000000000   -1.69839999999994   -0.36219999999991
C        -3.14039999999999   -2.36820000000004   -1.21199999999999
C        -2.70219999999991   -3.47560000000005   -1.93050000000010
C        -1.37779999999998   -3.89880000000010   -1.78760000000006
C        -0.54290000000003   -3.18670000000007   -0.93509999999995
H         0.49810000000001   -3.45630000000000   -0.78940000000001
H        -0.99570000000000   -4.76030000000002   -2.32769999999998
H        -4.16500000000000   -2.02889999999999   -1.31830000000000
C        -2.62129999999999   -0.50950000000002    0.44099999999997
N        -1.62600000000000    0.07329999999999    1.16020000000003
C        -1.89680000000000    1.15240000000002    1.91689999999999
C        -3.17230000000001    1.70330000000001    1.99649999999999
C        -4.20510000000000    1.11739999999999    1.26270000000002
C        -3.92610000000003    0.00250000000000    0.47820000000001
H        -4.71959999999998   -0.46420000000000   -0.09519999999998
H        -3.34629999999999    2.57510000000000    2.62070000000000
H        -1.04450000000001    1.57420000000000    2.43690000000001
Ir        0.42150000000000   -0.81650000000000    0.91330000000000
H         0.87260000000000   -2.23030000000000    1.54050000000000
B         0.50670000000001    0.41559999999999   -0.81539999999999
O         0.19500000000000   -0.04700000000001   -2.09150000000001
C         0.00649999999993    1.10040000000012   -2.95430000000002
C         0.49020000000002    0.74739999999997   -4.35779999999993
H         1.51609999999999    0.37380000000003   -4.33700000000000
H         0.44729999999999    1.62239999999998   -5.01670000000003
H        -0.14740000000003   -0.03389999999995   -4.78430000000001
C        -1.50119999999993    1.39560000000001   -2.96669999999998
H        -1.75370000000001    2.21460000000002   -3.64850000000002
H        -2.03199999999998    0.49449999999995   -3.28930000000001
H        -1.85170000000000    1.65209999999998   -1.96220000000002
C         0.84230000000000    2.20670000000005   -2.22039999999992
O         0.75200000000001    1.78260000000001   -0.83690000000001
C         2.32930000000004    2.18620000000001   -2.59899999999993
H         2.74130000000005    1.18499999999994   -2.45750000000000
H         2.48869999999999    2.51299999999998   -3.63180000000006
H         2.87199999999999    2.86270000000005   -1.93199999999998
C         0.28440000000006    3.62289999999993   -2.33660000000003
H        -0.72649999999998    3.69040000000000   -1.92909999999999
H         0.92129999999998    4.31480000000000   -1.77609999999996
H         0.26430000000000    3.94809999999999   -3.38320000000003
B         1.56300000000000    0.60959999999996    1.84839999999999
O         2.92779999999999    0.55230000000000    2.15020000000000
C         3.36329999999995    1.88660000000003    2.50259999999992
C         4.53139999999998    1.78589999999988    3.47740000000004
H         4.27909999999998    1.16090000000001    4.33690000000006
H         5.39390000000001    1.33790000000003    2.97339999999998
H         4.82389999999999    2.77869999999996    3.83820000000001
C         3.79699999999999    2.56849999999998    1.19669999999989
H         4.20020000000000    3.57090000000002    1.37680000000000
H         4.56740000000000    1.95559999999998    0.72109999999997
H         2.95240000000001    2.63260000000001    0.50539999999999
C         2.05039999999998    2.50089999999998    3.09320000000000
O         1.03750000000002    1.81620000000000    2.31909999999996
C         1.89100000000000    4.00450000000002    2.88649999999981
H         1.87290000000001    4.25440000000001    1.82410000000001
H         0.94939999999997    4.34260000000000    3.33169999999997
H         2.71080000000001    4.55149999999999    3.36629999999997
C         1.82470000000001    2.13199999999994    4.56519999999996
H         1.92610000000000    1.05329999999999    4.71320000000000
H         2.52609999999997    2.65280000000005    5.22539999999998
H         0.80630000000001    2.41580000000001    4.84900000000001
B         2.27820000000000   -1.33090000000000    0.17410000000000
O         2.89459999999998   -2.57739999999999    0.38450000000000
C         4.26929999999999   -2.48200000000001   -0.07210000000001
C         5.10900000000001   -2.05380000000002    1.14010000000000
H         4.76349999999999   -1.08740000000001    1.51750000000000
H         4.98050000000000   -2.79470000000002    1.93589999999999
H         6.17419999999999   -1.99290000000001    0.89300000000001
C         4.71949999999997   -3.84660000000001   -0.58470000000000
H         4.75280000000000   -4.56130000000000    0.24419999999998
H         5.72330000000000   -3.78370000000000   -1.02009999999999
H         4.03500000000000   -4.23599999999998   -1.34170000000001
C         4.16439999999999   -1.36220000000001   -1.16299999999999
O         3.08519999999999   -0.55030000000003   -0.65400000000000
C         5.40719999999999   -0.48870000000004   -1.31549999999996
H         6.27319999999998   -1.09009999999999   -1.61530000000000
H         5.23300000000000    0.26930000000001   -2.08590000000000
H         5.64270000000000    0.02650000000000   -0.38240000000000
C         3.71800000000001   -1.89829999999999   -2.53110000000000
H         2.82530000000002   -2.52160000000000   -2.42740000000000
H         3.46089999999998   -1.05250000000006   -3.17549999999999
H         4.50569999999999   -2.48290000000002   -3.01790000000001
H        -3.38499999999995   -4.00129999999996   -2.59310000000007
H        -5.21400000000000    1.52080000000002    1.29960000000000
C         0.23589999999999   -1.68139999999999    2.96030000000003
C        -0.93419264160881   -2.13442212597249    3.50810880501678
C         1.20327965574959   -1.72482979256370    4.00834013801793
N        -0.73053792085262   -2.42156221082253    4.85015626335538
H        -1.90648520462193   -2.28805143436381    3.07535667854835
C         0.59925183978765   -2.16784643885424    5.14313845941265
H         2.23855081635686   -1.45538539125114    3.89426669243455
C        -1.62259509979688   -2.98697697092057    5.74831842488323
H         0.96998172654372   -2.34294082898123    6.13797030650092
O        -1.28597218450897   -3.37241572125473    6.84650240276566
O        -2.85511176178973   -3.04118611521592    5.22455968275210
C        -3.95024184470744   -3.68118123242451    5.93788120128989
C        -4.16309671135421   -3.04118698308785    7.31220751404892
C        -5.16512156766447   -3.42687843156099    5.03890487947201
C        -3.67218056690735   -5.18182021819238    6.06280782124844
H        -4.27168791546347   -1.96053166931092    7.20988205369799
H        -3.31839919156721   -3.24751985693111    7.96755197809653
H        -5.06765953916638   -3.44858519266777    7.76211986343625
H        -5.33830034144609   -2.35498852730444    4.94389870044212
H        -6.04814106663214   -3.89612438723146    5.47105676622420
H        -4.98799659815944   -3.84034154280113    4.04624528301352
H        -2.78989816093440   -5.35311980900730    6.67842468747952
H        -3.50269269811171   -5.61545571982840    5.07612713254633
H        -4.52598225919856   -5.67436586777672    6.52614639513739
109
 energy: -157.544099949592 gnorm: 0.048908641242 xtb: 6.4.1 (1a32961)
N        -0.96204479144966   -2.10117182713145   -0.24900751149154
C        -2.24005844277380   -1.69084241895807   -0.36315332313897
C        -3.13431875608431   -2.36156046383377   -1.20638793928984
C        -2.70413358510375   -3.46314647465286   -1.92209636622617
C        -1.38425134270930   -3.88211327941350   -1.78240253858549
C        -0.55434852513248   -3.16822436885287   -0.93972784840387
H         0.47950412443529   -3.44801894586051   -0.79085042441446
H        -1.00785517489592   -4.74205032415081   -2.31782660604669
H        -4.15469395416300   -2.02583955301683   -1.31092967411344
C        -2.61195095594071   -0.51496878395506    0.43773444154388
N        -1.61989623236389    0.06323081895466    1.15064871912123
C        -1.89749132283200    1.13574560634641    1.89579017657136
C        -3.16397361473192    1.68690222939752    1.98226026787623
C        -4.19549370806840    1.10356824869312    1.25527147093408
C        -3.91448079580321   -0.00373007793624    0.47592481199743
H        -4.70580356669173   -0.46607196859196   -0.09394591254460
H        -3.33834812368437    2.55149802705735    2.60738712648285
H        -1.05371308138529    1.55487974574929    2.42295199632277
Ir        0.42150000000000   -0.81650000000000    0.91330000000000
H         0.87260000000000   -2.23030000000000    1.54050000000000
B         0.49405143219928    0.42194378940177   -0.79078647269809
O         0.17622203030356   -0.03606579270509   -2.06304032944395
C         0.01121776211286    1.09596987111451   -2.94338244418112
C         0.49033265450051    0.74671364133887   -4.34839791710370
H         1.50925336477662    0.36993714497958   -4.32697272260832
H         0.44562864627862    1.62222309222597   -4.99680238352855
H        -0.14843898147305   -0.02916527543923   -4.76891620095626
C        -1.49284589253456    1.39880921369499   -2.97001669409678
H        -1.73095332228072    2.21181157025130   -3.65428063773595
H        -2.02293277290446    0.50179976001025   -3.29005212333083
H        -1.83955122139932    1.65365715994739   -1.96843522794191
C         0.83277854873774    2.20587335599291   -2.21206241580046
O         0.75653956855567    1.77829381780003   -0.83509392940959
C         2.31522313152089    2.19006731194668   -2.59985712996224
H         2.71958779227442    1.19104532424289   -2.44978705108105
H         2.46671668904607    2.51153616491519   -3.62963155090458
H         2.85737211734185    2.86489190840716   -1.93847951452889
C         0.28130016895247    3.62207236856606   -2.33948570192396
H        -0.72204305201419    3.69132366864023   -1.92742606024714
H         0.92087505332239    4.30588615982324   -1.78295494523930
H         0.26384814383129    3.93449228162388   -3.38376230085577
B         1.56538123246741    0.61286797059329    1.86309080945183
O         2.92641080045588    0.56376838164298    2.14019755234285
C         3.36357750621462    1.88610380595478    2.51045781620447
C         4.53345786095883    1.78951422282475    3.48111146806943
H         4.28139197818649    1.16171274571340    4.33168749120352
H         5.38832979580990    1.34496596723163    2.97334465603916
H         4.81598026275179    2.78004582066073    3.83657799163322
C         3.79906272329685    2.57299857736882    1.21153262995939
H         4.20034591092781    3.56885797875829    1.39506670669306
H         4.56312191803331    1.96149588451848    0.73465392693263
H         2.95083096403103    2.62504006964555    0.53027548155916
C         2.05336753961527    2.50489633644981    3.08978996383582
O         1.04149902194683    1.80762397832251    2.33696725795434
C         1.89420217559669    4.00696557284845    2.88832105064993
H         1.86893270021633    4.25016897913726    1.82994705016380
H         0.95669865130901    4.33623368702663    3.33473412807449
H         2.71451585850885    4.54349376110592    3.36451541241120
C         1.83197109121649    2.14183610015909    4.56223123479136
H         1.93301271492220    1.06620128621728    4.70111264892576
H         2.53295612181260    2.66362437607418    5.21124644677758
H         0.81742332999103    2.42080854585887    4.84592478024293
B         2.27820000000000   -1.33090000000000    0.17410000000000
O         2.90053643802884   -2.56208949764553    0.39013487045748
C         4.26537704899823   -2.48384457247495   -0.07717738203716
C         5.10942649183224   -2.05891724465587    1.12887424238916
H         4.75251778753695   -1.09909337317522    1.49983927914389
H         4.97769049370100   -2.79409915873745    1.92185135630204
H         6.16725520973698   -1.99880677233425    0.87719904124030
C         4.72005975677503   -3.84603597717786   -0.58699395744879
H         4.74942974580860   -4.55022780249268    0.24316882452180
H         5.71792913724201   -3.77462520538434   -1.01894342254223
H         4.03446690288688   -4.23346736357400   -1.33581960141400
C         4.16662333020257   -1.36093882142623   -1.15749688173934
O         3.07433999269960   -0.56408338320511   -0.66221082193944
C         5.40989300438946   -0.49269071896337   -1.31505505736249
H         6.26613854491707   -1.09848920199021   -1.61052425881175
H         5.23159321351136    0.25833752361733   -2.08344953351000
H         5.63726857350497    0.02183418400031   -0.38595424983189
C         3.72971257749436   -1.90018348799218   -2.52562798073963
H         2.83751900291952   -2.51534992704198   -2.41688211236720
H         3.47255781742568   -1.05862251503578   -3.16745800957638
H         4.51973305619925   -2.47742078948467   -3.00317756022846
H        -3.38336494745839   -3.98782790883947   -2.58028110677928
H        -5.19914325736535    1.50591308820273    1.29463148113592
C         0.23589999999999   -1.68140000000001    2.96030000000004
C        -0.93232583347872   -2.13369138767740    3.50642765752182
C         1.20311952735365   -1.72335151339751    4.01554050334285
N        -0.73179124116395   -2.42059589399123    4.85012756565477
H        -1.90111237367175   -2.28748436971298    3.07390276776019
C         0.59689203738115   -2.16474228886974    5.14490880079263
H         2.23551982438073   -1.45388811903424    3.90387523546784
C        -1.62155057613377   -2.98423768991265    5.74361016717268
H         0.96455970331994   -2.33814074036805    6.13757033998469
O        -1.28592602416062   -3.36618296707219    6.84162416147569
O        -2.84948305000916   -3.04181100897652    5.22278385731511
C        -3.94746779584458   -3.67955688789837    5.93723279838949
C        -4.16286423469973   -3.03770776930266    7.30863567293854
C        -5.16121010521427   -3.42787725098290    5.03903680150463
C        -3.67085272480518   -5.17855443254527    6.06428454052409
H        -4.27236213271004   -1.95969925372381    7.20593549316172
H        -3.32097481200505   -3.24252293358244    7.96486000997264
H        -5.06534222857475   -3.44436868201253    7.75715365246744
H        -5.33590064399110   -2.35901332027241    4.94265350537461
H        -6.04174133997139   -3.89575215279720    5.46989994850990
H        -4.98522583216542   -3.84125069717202    4.04902459573436
H        -2.79051381347240   -5.34964073561488    6.67963142096651
H        -3.50117851147968   -5.61296196189913    5.08052342702505
H        -4.52281675574063   -5.66975515918900    6.52634848927416
109
 energy: -157.545712382283 gnorm: 0.039624998653 xtb: 6.4.1 (1a32961)
N        -0.95445248537906   -2.09373613458079   -0.25634380046777
C        -2.23065564964664   -1.68518394022570   -0.36524302437571
C        -3.12991718732830   -2.35425003450215   -1.20364537632872
C        -2.70791907624646   -3.45299397431124   -1.92052996218398
C        -1.38841759807939   -3.87240560558965   -1.78423268550054
C        -0.55863123312300   -3.15882396372348   -0.94625985286599
H         0.47388469142994   -3.44267510275255   -0.80518737073837
H        -1.01759189348181   -4.73182117885745   -2.31805223225082
H        -4.14878842804836   -2.01896036873833   -1.30090542101543
C        -2.59922427159746   -0.51839846922542    0.43237234405016
N        -1.60999648872812    0.05461123153060    1.14678250984807
C        -1.89326515802608    1.12170587717563    1.88704696138839
C        -3.15517252015123    1.67483346871046    1.97486745962732
C        -4.18716493074587    1.09260081932618    1.24792502037954
C        -3.90229917919416   -0.00908201863669    0.46943060675535
H        -4.69100292774830   -0.47229058940917   -0.09898586721882
H        -3.32958835134834    2.53654532638650    2.59848583643523
H        -1.05448042387526    1.54527913296173    2.41554525132935
Ir        0.42150000000000   -0.81650000000000    0.91330000000000
H         0.87260000000000   -2.23030000000000    1.54050000000000
B         0.49649247991686    0.43065922997270   -0.76882114717935
O         0.15699218933690   -0.02750783507538   -2.03405879624373
C         0.00734156335208    1.09235615770583   -2.92395862396068
C         0.49183346848238    0.73796019306532   -4.32622267992908
H         1.50699659743946    0.35731573987650   -4.30538574649061
H         0.44768929717158    1.61665137022616   -4.96484146695203
H        -0.15096952046988   -0.03165190065105   -4.74559181246553
C        -1.49490553440905    1.40501518544957   -2.97029586756940
H        -1.71401981990873    2.21443381921245   -3.66028684330004
H        -2.02461335735176    0.51060745025670   -3.29148592607776
H        -1.84440014232532    1.66351717344494   -1.97290117523808
C         0.82614805988898    2.20421090225888   -2.19905145943614
O         0.76129621039576    1.78088236837474   -0.82688184093239
C         2.30604911035667    2.19355471497692   -2.59719221459490
H         2.70782382266233    1.19625159378393   -2.44005698071709
H         2.44417688768980    2.50757472359206   -3.62798918467524
H         2.84801332666987    2.87323571894119   -1.94424080786943
C         0.27227071532995    3.61904268400746   -2.33565322889630
H        -0.72705637717786    3.69455354336842   -1.92038190917597
H         0.91710783355649    4.30171693469479   -1.78884699478984
H         0.25557947650373    3.91447357873466   -3.38148801281038
B         1.57030766092492    0.61981752263891    1.86814228362467
O         2.92574545779253    0.57351847683824    2.13191018151967
C         3.36320273271062    1.88673542811409    2.51475080041984
C         4.53133576099599    1.79043864621323    3.48840634346470
H         4.28257369381606    1.15881428030436    4.33419891109605
H         5.38391635118537    1.35270008209594    2.97658622399904
H         4.80406341365399    2.78084102284604    3.84137353087644
C         3.80329775628918    2.58262796836839    1.22247524843795
H         4.20096038375645    3.57474622960710    1.41361027837875
H         4.56668030528642    1.97364334966502    0.74597339808879
H         2.95357448400523    2.62876154557929    0.54568776104277
C         2.05443532022683    2.50453203846340    3.09185249192143
O         1.04441417474627    1.79992175558030    2.35246834339291
C         1.89674816059016    4.00631598251559    2.88690446815190
H         1.86393034953782    4.24722799217081    1.83036559900224
H         0.96414302735853    4.33228162893803    3.33920827002960
H         2.72062993211007    4.53454755207582    3.35824328254639
C         1.84285540647021    2.15207390818104    4.56910338686087
H         1.94549685224715    1.07815668392762    4.70423839580723
H         2.54648419603751    2.67815500443571    5.20637340780860
H         0.83046505659878    2.42937237656158    4.85335425456470
B         2.27819999999998   -1.33090000000000    0.17410000000000
O         2.90203953224883   -2.55052571905898    0.39890702877581
C         4.25796202017951   -2.48283821064208   -0.07667081696580
C         5.11203596913205   -2.06143251957280    1.12312320859799
H         4.74969517031198   -1.10467016559663    1.49106648580947
H         4.98095561040710   -2.79519314193082    1.91397397157210
H         6.16430623201703   -2.00212153258624    0.86290553962965
C         4.71152644189799   -3.84494725262217   -0.58893295334940
H         4.74302203300870   -4.54255301895977    0.24291990307531
H         5.70552116269931   -3.76471379064701   -1.01960113141782
H         4.02597501815174   -4.23400024955749   -1.33346894386835
C         4.16261927475963   -1.36205129437765   -1.15538877913192
O         3.06333640099140   -0.57390135691392   -0.67035619565420
C         5.40751339344236   -0.49564928658300   -1.30845740188841
H         6.25612151355307   -1.10889946757509   -1.59796494636632
H         5.23097483227108    0.24856533776969   -2.07999291024273
H         5.63123556103854    0.02123139991524   -0.38246913884517
C         3.74063647195414   -1.90507093097726   -2.52735746662497
H         2.84926316180449   -2.51725545219520   -2.41787959551960
H         3.48759353914628   -1.06533920414769   -3.16979530194435
H         4.53688081590903   -2.47832354691004   -2.99175457062351
H        -3.38868658089872   -3.97752801629450   -2.57279836597733
H        -5.18905649837287    1.49198019545859    1.28941974737957
C         0.23589999999999   -1.68140000000003    2.96030000000005
C        -0.93102372151203   -2.13208150105862    3.50490748268445
C         1.20309393406586   -1.71999274537318    4.02144081058941
N        -0.73445016686704   -2.41557992458480    4.85137135149322
H        -1.89762721812157   -2.28821651456978    3.07160180161984
C         0.59380452982741   -2.15837850400411    5.14736349199547
H         2.23388046089487   -1.44952481112726    3.91137097248197
C        -1.62343122489776   -2.97551035901171    5.74174001707983
H         0.95831525168810   -2.32866306102770    6.14037289631033
O        -1.28856336439772   -3.35562529938233    6.84129320562355
O        -2.84732027243291   -3.03682351625425    5.22178370790600
C        -3.94613540685968   -3.67722495126166    5.93610867433786
C        -4.16267498252359   -3.03509185416601    7.30573492464210
C        -5.15786482711319   -3.42857628485660    5.03652257882654
C        -3.66680908813122   -5.17442615831969    6.06623322318029
H        -4.27402582441699   -1.95837617342167    7.20103397943497
H        -3.32136995186857   -3.23684207953673    7.96258113798204
H        -5.06425158715449   -3.44235931559258    7.75278636854452
H        -5.33430789721594   -2.36110936229781    4.93898914636811
H        -6.03615100528182   -3.89738915663041    5.46764547115316
H        -4.98023739242527   -3.84291755024329    4.04829058443793
H        -2.78746002813903   -5.34287225007053    6.68273285639746
H        -3.49579444924362   -5.61003796940257    5.08428727958547
H        -4.51799747439205   -5.66483777762287    6.52809373098707
109
 energy: -157.546216506487 gnorm: 0.039350173554 xtb: 6.4.1 (1a32961)
N        -0.94606522146055   -2.09181003453728   -0.26495942587731
C        -2.22303886897610   -1.68316439918592   -0.36882265196802
C        -3.12696560229077   -2.35133485821625   -1.20400738270704
C        -2.71038169071539   -3.45005767604939   -1.92280612194377
C        -1.38915878271482   -3.86971674203548   -1.79234808993877
C        -0.55546395368534   -3.15575959841462   -0.95832047760043
H         0.47716148450821   -3.44314347409517   -0.82277061312121
H        -1.02220292044630   -4.72972668842346   -2.32695563724891
H        -4.14566719469891   -2.01411540069544   -1.29547020974056
C        -2.58984984222546   -0.52004719922643    0.42938034244488
N        -1.60118569555525    0.05216981838166    1.14577125001375
C        -1.88704182786787    1.11861887298965    1.88502251307569
C        -3.14896961991400    1.67111287615538    1.97304024915894
C        -4.18144962616210    1.08801607209767    1.24498061583570
C        -3.89396488631826   -0.01158281165195    0.46576109764833
H        -4.68040869066683   -0.47519270983856   -0.10522867712632
H        -3.32437991835919    2.53126670924550    2.59747726539375
H        -1.05132563011087    1.54291565961157    2.41837990561993
Ir        0.42150000000000   -0.81650000000000    0.91330000000000
H         0.87260000000000   -2.23030000000000    1.54050000000000
B         0.48445996745021    0.44233942384741   -0.75146415049592
O         0.13683133668138   -0.02065445016818   -2.01255657070063
C        -0.00023639607910    1.09172497313127   -2.90828422170964
C         0.49142788005536    0.72761523400416   -4.30633183482032
H         1.50409823150086    0.34106896547945   -4.27902148994727
H         0.45474553156224    1.60609475167722   -4.94516339274198
H        -0.15435763611595   -0.03915925617438   -4.72596412760201
C        -1.50120726228652    1.41279223572705   -2.97024032321593
H        -1.70602895433512    2.22040641064940   -3.66620763010598
H        -2.03207616433341    0.51995609379354   -3.29326798756548
H        -1.85872689597715    1.67750493801790   -1.97745586729466
C         0.81960305368622    2.20552144312657   -2.18700048700818
O         0.76257501769425    1.78801060631796   -0.81591577625742
C         2.29814452712010    2.19638734446061   -2.59346756608118
H         2.70221422227877    1.20102362569771   -2.43038379119142
H         2.42775179621284    2.50284071974358   -3.62727207023289
H         2.84106327383695    2.88300718130029   -1.94879382726613
C         0.26444891155021    3.62009338528184   -2.33023333248744
H        -0.73279833885549    3.69920048000735   -1.91100145378887
H         0.91281373790715    4.30674233363870   -1.79273976577029
H         0.24324611033229    3.90405699992074   -3.37894035783323
B         1.57144649549748    0.61901430104568    1.87900013516255
O         2.92761191486584    0.57776165150508    2.12579806082961
C         3.36368131337341    1.88694348557260    2.51779207642744
C         4.53122979892795    1.78940224025886    3.49353148629766
H         4.28414086209054    1.15323055369653    4.33623470358906
H         5.38619865517884    1.35810286708133    2.98040740961000
H         4.79736361041961    2.78001619486550    3.85028043409624
C         3.80730615928892    2.59202456818030    1.23073145458847
H         4.20133283125372    3.58357991459024    1.42979411484604
H         4.57406940320959    1.98744026030453    0.75418560904427
H         2.95910214704233    2.63876065090180    0.55243475693740
C         2.05542657977476    2.50410726729020    3.09688348180087
O         1.04436797351153    1.79316578834942    2.36838998109070
C         1.89622753906056    4.00586898845537    2.88643338431501
H         1.85574000086755    4.24347142869644    1.82941658705675
H         0.96757385154788    4.33376699035138    3.34522149547606
H         2.72492673759824    4.53293157222932    3.35006927820490
C         1.85292547140166    2.16132267559238    4.57869571216052
H         1.95803157818336    1.08847862241572    4.71867907400579
H         2.56046570338986    2.69310333440170    5.20627495704554
H         0.84199843888491    2.43937810646316    4.86662669926660
B         2.27819999999997   -1.33090000000000    0.17410000000000
O         2.90280738333960   -2.54515743127279    0.40781049562144
C         4.25336669147600   -2.48297561282011   -0.07505739946114
C         5.11578884630775   -2.06299331883514    1.12030478264500
H         4.75446054104511   -1.10655874171519    1.48973784577335
H         4.98808252926268   -2.79739466279544    1.91086346469844
H         6.16576179107171   -2.00417636982306    0.85295440700048
C         4.70307923489078   -3.84699424215181   -0.58827855578901
H         4.73764419781491   -4.54305387555889    0.24452498621645
H         5.69509765751062   -3.76465565471262   -1.02227592718928
H         4.01485510926522   -4.23651371438901   -1.32995175604250
C         4.15950837198299   -1.36352669848869   -1.15532786598439
O         3.05550367101578   -0.57895364716649   -0.67909146587536
C         5.40494775304604   -0.49602758671352   -1.30320905710009
H         6.25324312351466   -1.11295805547497   -1.58507011087521
H         5.23299354968412    0.24458720372152   -2.07905533147329
H         5.62367110102448    0.02401520985243   -0.37795508837284
C         3.74997173440992   -1.91001126191833   -2.53067578058213
H         2.85885990321291   -2.52310576320257   -2.42685509916982
H         3.50249755404448   -1.07157243484866   -3.17681572001783
H         4.55232917650166   -2.48246301808741   -2.98458887181140
H        -3.39439913565597   -3.97370934850776   -2.57204056567013
H        -5.18377632054210    1.48546077678295    1.28678352954650
C         0.23589999999999   -1.68140000000007    2.96030000000007
C        -0.93048834807209   -2.13121064722255    3.50415799766070
C         1.20255912760435   -1.71488167978431    4.02424545964220
N        -0.73625152650886   -2.41014782539805    4.85273771631785
H        -1.89623172485162   -2.29075270889829    3.06992568520510
C         0.59119847152355   -2.14937327383195    5.14983707320773
H         2.23301364842699   -1.44360478624803    3.91451626225386
C        -1.62510878387554   -2.96855712570314    5.74192764254900
H         0.95350827024785   -2.31578730396216    6.14449370500454
O        -1.29114897383955   -3.34399279613081    6.84427509527179
O        -2.84711561353844   -3.03353304415993    5.22112563552249
C        -3.94600869386304   -3.67490149862075    5.93593670080809
C        -4.16480500982990   -3.02960852196078    7.30339526217834
C        -5.15617642377071   -3.43031443484477    5.03371719952338
C        -3.66244834045556   -5.17082877004931    6.06881762855779
H        -4.27791720585970   -1.95323602648628    7.19612549109065
H        -3.32336088014801   -3.22838745405292    7.96097229048490
H        -5.06589888138389   -3.43783392045076    7.75048703561403
H        -5.33406851018252   -2.36328777245527    4.93384313858092
H        -6.03420878323758   -3.90005924493726    5.46435165171606
H        -4.97556527127502   -3.84621381520666    4.04665206084013
H        -2.78326841485532   -5.33535830871176    6.68671070600161
H        -3.48927222169882   -5.60828091361394    5.08804219018338
H        -4.51301922132220   -5.66187380132418    6.53111942898061
109
 energy: -157.546779248688 gnorm: 0.039947312106 xtb: 6.4.1 (1a32961)
N        -0.93349795223708   -2.09128142347589   -0.27861734790254
C        -2.21204718476383   -1.68180774416890   -0.37528651775781
C        -3.12168793200907   -2.34880792482283   -1.20696362687057
C        -2.71166643080603   -3.44716929599159   -1.92953752458456
C        -1.38800125242173   -3.86676367457206   -1.80837923947457
C        -0.54823881174924   -3.15328290805123   -0.97876166028617