17
 energy: -24.897334871566 gnorm: 0.043929120565 xtb: 6.4.1 (1a32961)
N        -0.32879000000000   -0.55988000000000    0.02036000000000
C        -0.09799000000000   -1.99137000000000    0.02705000000000
C         0.64750000000000    0.40863000000000    0.01817000000000
C         2.04663000000000    0.15166000000000    0.00924000000000
N         3.17573000000000   -0.11909000000000   -0.00687000000000
C         0.02189000000000    1.63905000000000    0.01220000000000
C        -1.37324000000000    1.40567000000000   -0.01255000000000
C        -1.57229000000000    0.03805000000000   -0.01365000000000
C        -2.84351000000000   -0.73289000000000   -0.05742000000000
H         0.97104000000000   -2.20772000000000    0.07149000000000
H        -0.51451000000000   -2.40807000000000   -0.89298000000000
H        -0.58794000000000   -2.41715000000000    0.90622000000000
H         0.51394000000000    2.60402000000000    0.01174000000000
H        -2.15402000000000    2.15672000000000   -0.03865000000000
H        -3.70764000000000   -0.06127000000000   -0.07977000000000
H        -2.93804000000000   -1.37587000000000    0.82313000000000
H        -2.88017000000000   -1.35791000000000   -0.95533000000000
17
 energy: -24.899856720633 gnorm: 0.021112794322 xtb: 6.4.1 (1a32961)
N        -0.33315079112859   -0.55992501943255    0.01348811786097
C        -0.10834491667633   -1.98647307647157    0.02210384228447
C         0.63774873454810    0.41006565675551    0.02298026683183
C         2.01335007091367    0.14165963938503    0.03788267175543
N         3.13265416285170   -0.11619318586036   -0.01673194723760
C         0.01742010632839    1.64760904835737    0.00437075767110
C        -1.36360507318681    1.40906013898851   -0.01734838897689
C        -1.55803744971089    0.04229570570782   -0.01652756699304
C        -2.82360416238073   -0.73398503893747   -0.05489850738115
H         0.96115610465804   -2.18513309370452    0.06826799731022
H        -0.51621069967865   -2.43092207759357   -0.88729395880893
H        -0.59140538869873   -2.43096337134372    0.89366949596101
H         0.50724452444545    2.60465990577256    0.00894235877887
H        -2.13760012424317    2.15413975503236   -0.03607809958102
H        -3.67302861383054   -0.05333942160977   -0.07517311181880
H        -2.91944145314065   -1.37754925326723    0.82069765495443
H        -2.86655503107026   -1.36242631177840   -0.94597158261087
17
 energy: -24.899071996944 gnorm: 0.021629139231 xtb: 6.4.1 (1a32961)
N        -0.33771350141648   -0.55811376494229    0.00830461342531
C        -0.11302958633281   -1.97785183903773    0.01566880420803
C         0.63090151022163    0.41240064268425    0.00850306753537
C         1.98926529236992    0.13785684172283   -0.04444693322571
N         3.10536629097841   -0.13793969447529    0.07689104113626
C         0.01084673193722    1.65477852565555    0.00416186565973
C        -1.36015970307559    1.41206846035703   -0.01319598390343
C        -1.54860243311454    0.04436789072688   -0.01186491385978
C        -2.81083189507025   -0.73525762410540   -0.04896332034879
H         0.95785823041905   -2.16344611625217    0.05712288804231
H        -0.51994385606154   -2.44108247534000   -0.88470962354642
H        -0.58737145222196   -2.43713639779236    0.88415254620460
H         0.50130077593327    2.60528866569065    0.00145140526614
H        -2.13088270126185    2.15254247599708   -0.02994193409296
H        -3.65144207537081   -0.05014266436403   -0.06748383188795
H        -2.90289788038597   -1.38041453210031    0.82295920081672
H        -2.85407374754780   -1.36533839442471   -0.93622889142952
17
 energy: -24.900322854518 gnorm: 0.008482653851 xtb: 6.4.1 (1a32961)
N        -0.33923083194857   -0.55858485963388    0.00620756168041
C        -0.11180145683009   -1.97742244467043    0.01713199214514
C         0.63270772700453    0.40955673192071    0.01779071794987
C         1.99345247562700    0.12782685016900    0.02445372476668
N         3.11479614197392   -0.12668460514446    0.01358105356558
C         0.01208688581151    1.65209148830173    0.00253996600683
C        -1.36173621321724    1.41195792738774   -0.01975905641057
C        -1.55153282971312    0.04340153284129   -0.01825264413093
C        -2.81538493013968   -0.73474226461722   -0.05123653420288
H         0.95942762142550   -2.16492453158794    0.06114987710670
H        -0.51718608117326   -2.43763534616237   -0.88589084189042
H        -0.58970604111436   -2.43289540271524    0.88613581878324
H         0.50535416984616    2.60293714936409    0.00732757468445
H        -2.13370864604191    2.15419009979832   -0.03521706532701
H        -3.65899394491082   -0.05191648210969   -0.06939055828162
H        -2.90293730118536   -1.37776863670367    0.82373497693619
H        -2.85701674541426   -1.36680720643799   -0.93792656338172
17
 energy: -24.900374834074 gnorm: 0.003399737260 xtb: 6.4.1 (1a32961)
N        -0.34001562823628   -0.55807831847730    0.00366602173299
C        -0.11041640345405   -1.97690099545134    0.01548658087224
C         0.63384759351928    0.40934420558306    0.01521598441025
C         1.99648832736879    0.12511296157385    0.02676902907728
N         3.12132694215547   -0.12623753251376    0.02042141186795
C         0.01230640899530    1.65139084577692    0.00076505429969
C        -1.36304001535270    1.41238503825973   -0.02028289126396
C        -1.55370838117283    0.04325592193229   -0.02003725555149
C        -2.81852641541449   -0.73466088954967   -0.05033336838177
H         0.96087986181079   -2.16554448106642    0.05873589695262
H        -0.51649193062560   -2.43619109617524   -0.88791003920074
H        -0.58747953756373   -2.43083495748320    0.88607299665055
H         0.50770724287578    2.60235868144411    0.00653243132906
H        -2.13583453940505    2.15534457011404   -0.03492621949611
H        -3.66430962181698   -0.05380741894264   -0.06736180841352
H        -2.90315104868663   -1.37662337042155    0.82630803066067
H        -2.86099285499711   -1.36773316460290   -0.93674185554576
17
 energy: -24.900399512881 gnorm: 0.002536205599 xtb: 6.4.1 (1a32961)
N        -0.34131728481972   -0.55774032638441    0.00079582445663
C        -0.10978997192593   -1.97581238707397    0.01298095606378
C         0.63410271731522    0.40904493312021    0.01277072827002
C         1.99572088648324    0.12116082050330    0.02606499568088
N         3.12196088810687   -0.12541918159716    0.03168086492909
C         0.01204792878504    1.65127794161811   -0.00026975559496
C        -1.36323797709777    1.41300547986249   -0.02129160361447
C        -1.55434971299705    0.04333119819519   -0.02157542375671
C        -2.81967084294412   -0.73457016928557   -0.04875065524526
H         0.96184572440956   -2.16349132710343    0.05490927531552
H        -0.51632119645048   -2.43631933419705   -0.88977582325888
H        -0.58497749328244   -2.43021611178773    0.88459400828295
H         0.50960512227249    2.60138404093543    0.00546572630792
H        -2.13613467055910    2.15612478239336   -0.03580028793190
H        -3.66623118159492   -0.05474391300991   -0.06481309154872
H        -2.90128806869202   -1.37513883372211    0.82937569015265
H        -2.86337486700889   -1.36929761246678   -0.93398142850858
17
 energy: -24.900412998961 gnorm: 0.002152187485 xtb: 6.4.1 (1a32961)
N        -0.34259667869521   -0.55785192209995   -0.00211910652171
C        -0.10958360271917   -1.97551221329990    0.00981513462753
C         0.63402012374788    0.40846943004773    0.01072771924904
C         1.99435152126089    0.11722128549560    0.02798500429901
N         3.12214470916710   -0.12142161964842    0.04327466175088
C         0.01200525660865    1.65091576969056   -0.00185314507746
C        -1.36292606520427    1.41338458499282   -0.02275318007515
C        -1.55476989600159    0.04344702716496   -0.02337016110110
C        -2.82038861093341   -0.73429541628160   -0.04675333712507
H         0.96242514671583   -2.16174449387219    0.04967427583562
H        -0.51706142276587   -2.43710818083088   -0.89200939723420
H        -0.58221774701576   -2.43082006460241    0.88244546306766
H         0.51148537364927    2.60004244860051    0.00372982320241
H        -2.13557900303093    2.15664481546110   -0.03721444985909
H        -3.66709512362390   -0.05475076640990   -0.06213052427835
H        -2.89947656782567   -1.37280602770756    0.83315919963429
H        -2.86614741333391   -1.37123465670051   -0.93022798039437
17
 energy: -24.900417657961 gnorm: 0.001138855140 xtb: 6.4.1 (1a32961)
N        -0.34282125022265   -0.55837857404294   -0.00286552684608
C        -0.10976083297556   -1.97626450199542    0.00823432691085
C         0.63398498452867    0.40783586303621    0.01016092608115
C         1.99423043448948    0.11635815280367    0.02984611834587
N         3.12273607807130   -0.11678944321929    0.04828085485753
C         0.01241859960799    1.65032443289550   -0.00266751141399
C        -1.36252235127340    1.41313889075844   -0.02363915969202
C        -1.55494642887335    0.04335058394451   -0.02404294369336
C        -2.82071120349553   -0.73399378005450   -0.04570392913097
H         0.96235606645467   -2.16212310496262    0.04639424748434
H        -0.51849367678555   -2.43741612509929   -0.89315905223389
H        -0.58092003986323   -2.43190133339349    0.88141519348901
H         0.51227609837888    2.59923544830236    0.00270778459693
H        -2.13493522118958    2.15659299257288   -0.03831964604804
H        -3.66716866402329   -0.05405922285109   -0.06132934168506
H        -2.89948197837307   -1.37113412308254    0.83521671960042
H        -2.86765061445584   -1.37219615561240   -0.92814906062275
17
 energy: -24.900421100683 gnorm: 0.000852229292 xtb: 6.4.1 (1a32961)
N        -0.34268112652978   -0.55974935206922   -0.00281494436561
C        -0.11065211256755   -1.97821763391426    0.00620266378916
C         0.63389410198485    0.40627586286324    0.01006854067597
C         1.99465160139908    0.11688101806372    0.03333396921223
N         3.12469472005385   -0.10676416127954    0.05390586937732
C         0.01351261129079    1.64896382125641   -0.00390873330664
C        -1.36161371682038    1.41220936203222   -0.02489792671561
C        -1.55490457136438    0.04291417586649   -0.02452811639753
C        -2.82099846512341   -0.73341539888567   -0.04431150014367
H         0.96148658721144   -2.16426457113693    0.04094342111632
H        -0.52240412086453   -2.43775970721952   -0.89448158259623
H        -0.57944053676762   -2.43438001128604    0.88018648866173
H         0.51307190327238    2.59788981604128    0.00108279512084
H        -2.13348944416751    2.15609162010100   -0.04007654050581
H        -3.66653231630298   -0.05223051188452   -0.06123199573421
H        -2.90064074597573   -1.36831307079546    0.83807733737454
H        -2.86936436872857   -1.37355125775321   -0.92516974556287
17
 energy: -24.900421945001 gnorm: 0.000384795481 xtb: 6.4.1 (1a32961)
N        -0.34245582022648   -0.55998036843086   -0.00199808576711
C        -0.11098738665735   -1.97843421148795    0.00661946044044
C         0.63401115471374    0.40588433104429    0.01057602918562
C         1.99518158014289    0.11803946043990    0.03287352144097
N         3.12537068402326   -0.10546564473005    0.05258061841371
C         0.01375736038987    1.64872643613391   -0.00359014089794
C        -1.36151044114514    1.41197842838660   -0.02469266597246
C        -1.55471562718565    0.04270470070087   -0.02411030387643
C        -2.82099565768603   -0.73341426904047   -0.04460112969155
H         0.96105041845682   -2.16521353439173    0.04071461939188
H        -0.52355887488001   -2.43751555779855   -0.89398048610150
H        -0.57962621441658   -2.43461556195965    0.88070298797884
H         0.51296213970891    2.59783726630050    0.00130607838157
H        -2.13333358336695    2.15596681366186   -0.04007339937759
H        -3.66635513847153   -0.05206130736316   -0.06224384709888
H        -2.90141943122377   -1.36825076900321    0.83777209900080
H        -2.86878516217608   -1.37360621246235   -0.92547535545044
