      -----------------------------------------------------------      
     |                   =====================                   |     
     |                           x T B                           |     
     |                   =====================                   |     
     |                         S. Grimme                         |     
     |          Mulliken Center for Theoretical Chemistry        |     
     |                    University of Bonn                     |     
      -----------------------------------------------------------      

   * xtb version 6.4.1 (1a32961) compiled by 'knkr256@seskscpg007.prim.scp' on 2021-10-19

   xtb is free software: you can redistribute it and/or modify it under
   the terms of the GNU Lesser General Public License as published by
   the Free Software Foundation, either version 3 of the License, or
   (at your option) any later version.
   
   xtb is distributed in the hope that it will be useful,
   but WITHOUT ANY WARRANTY; without even the implied warranty of
   MERCHANTABILITY or FITNESS FOR A PARTICULAR PURPOSE.  See the
   GNU Lesser General Public License for more details.
   
   Cite this work as:
   * C. Bannwarth, E. Caldeweyher, S. Ehlert, A. Hansen, P. Pracht,
     J. Seibert, S. Spicher, S. Grimme, WIREs Comput. Mol. Sci., 2020, 11,
     e01493. DOI: 10.1002/wcms.1493
   
   for GFN2-xTB:
   * C. Bannwarth, S. Ehlert and S. Grimme., J. Chem. Theory Comput., 2019,
     15, 1652-1671. DOI: 10.1021/acs.jctc.8b01176
   for GFN1-xTB:
   * S. Grimme, C. Bannwarth, P. Shushkov, J. Chem. Theory Comput., 2017,
     13, 1989-2009. DOI: 10.1021/acs.jctc.7b00118
   for GFN0-xTB:
   * P. Pracht, E. Caldeweyher, S. Ehlert, S. Grimme, ChemRxiv, 2019, preprint.
     DOI: 10.26434/chemrxiv.8326202.v1
   for GFN-FF:
   * S. Spicher and S. Grimme, Angew. Chem. Int. Ed., 2020, 59, 15665-15673.
     DOI: 10.1002/anie.202004239
   
   for ALPB and GBSA implicit solvation:
   * S. Ehlert, M. Stahn, S. Spicher, S. Grimme, J. Chem. Theory Comput.,
     2021, 17, 4250-4261. DOI: 10.1021/acs.jctc.1c00471
   
   for DFT-D4:
   * E. Caldeweyher, C. Bannwarth and S. Grimme, J. Chem. Phys., 2017,
     147, 034112. DOI: 10.1063/1.4993215
   * E. Caldeweyher, S. Ehlert, A. Hansen, H. Neugebauer, S. Spicher,
     C. Bannwarth and S. Grimme, J. Chem. Phys., 2019, 150, 154122.
     DOI: 10.1063/1.5090222
   * E. Caldeweyher, J.-M. Mewes, S. Ehlert and S. Grimme, Phys. Chem. Chem. Phys.
     2020, 22, 8499-8512. DOI: 10.1039/D0CP00502A
   
   for sTDA-xTB:
   * S. Grimme and C. Bannwarth, J. Chem. Phys., 2016, 145, 054103.
     DOI: 10.1063/1.4959605
   
   in the mass-spec context:
   * V. Asgeirsson, C. Bauer and S. Grimme, Chem. Sci., 2017, 8, 4879.
     DOI: 10.1039/c7sc00601b
   * J. Koopman and S. Grimme, ACS Omega 2019, 4, 12, 15120-15133.
     DOI: 10.1021/acsomega.9b02011
   
   for metadynamics refer to:
   * S. Grimme, J. Chem. Theory Comput., 2019, 155, 2847-2862
     DOI: 10.1021/acs.jctc.9b00143
   
   for SPH calculations refer to:
   * S. Spicher and S. Grimme, J. Chem. Theory Comput., 2021, 17, 1701-1714
     DOI: 10.1021/acs.jctc.0c01306
   
   with help from (in alphabetical order)
   P. Atkinson, C. Bannwarth, F. Bohle, G. Brandenburg, E. Caldeweyher
   M. Checinski, S. Dohm, S. Ehlert, S. Ehrlich, I. Gerasimov, J. Koopman
   C. Lavigne, S. Lehtola, F. März, M. Müller, F. Musil, H. Neugebauer
   J. Pisarek, C. Plett, P. Pracht, J. Seibert, P. Shushkov, S. Spicher
   M. Stahn, M. Steiner, T. Strunk, J. Stückrath, T. Rose, and J. Unsleber
   
 * started run on 2022/01/14 at 13:13:12.650     

           -------------------------------------------------
          |                Calculation Setup                |
           -------------------------------------------------

          program call               : xtb xtbopt.xyz --sp --alpb thf -P 6
          hostname                   : seskscpg007.prim.scp
          coordinate file            : xtbopt.xyz
          omp threads                :                     6
          number of atoms            :                   101
          number of electrons        :                   270
          charge                     :                     0
          spin                       :                   0.0
          first test random number   :      0.43526523839568

   ID    Z sym.   atoms
    1    7 N      1, 11, 96
    2    6 C      2-6, 10, 12-15, 23, 24, 28, 32, 34, 38, 44, 45, 49, 53, 55,
                  59, 65, 66, 70, 74, 76, 80, 86-89, 91, 93, 97, 98
    3    1 H      7-9, 16-18, 20, 25-27, 29-31, 35-37, 39-41, 46-48, 50-52,
                  56-58, 60-62, 67-69, 71-73, 77-79, 81-85, 90, 92, 95, 99-101
    4   77 Ir     19
    5    5 B      21, 42, 63
    6    8 O      22, 33, 43, 54, 64, 75
    7   16 S      94

molecular fragmentation (1/2 indicates fragments):
111111111111111111111111111111111111111111111111111111111111111111111111
11111111111112222222222222222
# atoms in fragment 1/2:    85    16
 fragment masses (1/2) :      730.32      148.21
CMA distance (Bohr)    :  11.238
constraining FC (au)   :  0.0500

           -------------------------------------------------
          |                 G F N 2 - x T B                 |
           -------------------------------------------------

        Reference                      10.1021/acs.jctc.8b01176
      * Hamiltonian:
        H0-scaling (s, p, d)           1.850000    2.230000    2.230000
        zeta-weighting                 0.500000
      * Dispersion:
        s8                             2.700000
        a1                             0.520000
        a2                             5.000000
        s9                             5.000000
      * Repulsion:
        kExp                           1.500000    1.000000
        rExp                           1.000000
      * Coulomb:
        alpha                          2.000000
        third order                    shell-resolved
        anisotropic                    true
        a3                             3.000000
        a5                             4.000000
        cn-shift                       1.200000
        cn-exp                         4.000000
        max-rad                        5.000000

      * Solvation model:               ALPB
        Solvent                        thf
        Parameter file                 internal GFN2-xTB/ALPB
        Dielectric constant                7.6000E+00
        Reference state                gsolv [1 M gas/solution]
        Free energy shift                  5.3248E-03 Eh       3.3414E+00 kcal/mol
        Temperature                        2.9815E+02 K
        Density                            8.8300E-01 kg/L
        Solvent mass                       7.2106E+01 g/mol
        Interaction kernel             P16
        Born radius scaling (c1)           1.7311E+00
        Born radii integrator          GBOBC
        Born offset                        0.0000E+00 a0       0.0000E+00 AA
        H-bond correction              true
        Ion screening                  false
        Surface tension                    1.0000E-05 Eh       1.5569E+01 dyn/cm
        Grid points                               230 per atom
q/qsh data taken from xtbrestart
CAMM data taken from xtbrestart

          ...................................................
          :                      SETUP                      :
          :.................................................:
          :  # basis functions                 263          :
          :  # atomic orbitals                 261          :
          :  # shells                          153          :
          :  # electrons                       270          :
          :  max. iterations                   250          :
          :  Hamiltonian                  GFN2-xTB          :
          :  restarted?                       true          :
          :  GBSA solvation                   true          :
          :  PC potential                    false          :
          :  electronic temp.          300.0000000     K    :
          :  accuracy                    1.0000000          :
          :  -> integral cutoff          0.2500000E+02      :
          :  -> integral neglect         0.1000000E-07      :
          :  -> SCF convergence          0.1000000E-05 Eh   :
          :  -> wf. convergence          0.1000000E-03 e    :
          :  Broyden damping             0.4000000          :
          ...................................................

 iter      E             dE          RMSdq      gap      omega  full diag
   1   -149.3315315 -0.149332E+03  0.228E-05    0.90       0.0  T
   2   -149.3315315  0.810587E-10  0.339E-05    0.90     293.2  T
   3   -149.3315315 -0.867715E-10  0.153E-05    0.90     652.0  T

   *** convergence criteria satisfied after 3 iterations ***

         #    Occupation            Energy/Eh            Energy/eV
      -------------------------------------------------------------
         1        2.0000           -0.7225230             -19.6609
       ...           ...                  ...                  ...
       129        2.0000           -0.3774969             -10.2722
       130        2.0000           -0.3491015              -9.4995
       131        2.0000           -0.3339251              -9.0866
       132        2.0000           -0.3243595              -8.8263
       133        2.0000           -0.3208904              -8.7319
       134        2.0000           -0.3129960              -8.5171
       135        2.0000           -0.3107362              -8.4556 (HOMO)
       136                         -0.2778263              -7.5600 (LUMO)
       137                         -0.2513187              -6.8387
       138                         -0.2484057              -6.7595
       139                         -0.2467305              -6.7139
       140                         -0.2181134              -5.9352
       ...                                ...                  ...
       261                          3.7129373             101.0342
      -------------------------------------------------------------
                  HL-Gap            0.0329099 Eh            0.8955 eV
             Fermi-level           -0.2942391 Eh           -8.0067 eV

 SCC (total)                   0 d,  0 h,  0 min,  0.094 sec
 SCC setup                      ...        0 min,  0.003 sec (  2.926%)
 Dispersion                     ...        0 min,  0.003 sec (  3.195%)
 classical contributions        ...        0 min,  0.000 sec (  0.178%)
 integral evaluation            ...        0 min,  0.012 sec ( 13.069%)
 iterations                     ...        0 min,  0.039 sec ( 41.731%)
 molecular gradient             ...        0 min,  0.036 sec ( 37.985%)
 printout                       ...        0 min,  0.001 sec (  0.818%)

         :::::::::::::::::::::::::::::::::::::::::::::::::::::
         ::                     SUMMARY                     ::
         :::::::::::::::::::::::::::::::::::::::::::::::::::::
         :: total energy            -147.431272809831 Eh    ::
         :: total w/o Gsasa/hb      -147.387483079778 Eh    ::
         :: gradient norm              0.034380668919 Eh/a0 ::
         :: HOMO-LUMO gap              0.895524141983 eV    ::
         ::.................................................::
         :: SCC energy              -149.331531479021 Eh    ::
         :: -> isotropic ES            0.244923951779 Eh    ::
         :: -> anisotropic ES          0.013015105533 Eh    ::
         :: -> anisotropic XC          0.052079416580 Eh    ::
         :: -> dispersion             -0.141979532794 Eh    ::
         :: -> Gsolv                  -0.054331336533 Eh    ::
         ::    -> Gelec               -0.010541606481 Eh    ::
         ::    -> Gsasa               -0.046049362809 Eh    ::
         ::    -> Ghb                 -0.003065182688 Eh    ::
         ::    -> Gshift               0.005324815444 Eh    ::
         :: repulsion energy           1.892390284111 Eh    ::
         :: add. restraining           0.000000000000 Eh    ::
         :: total charge               0.000000000004 e     ::
         :::::::::::::::::::::::::::::::::::::::::::::::::::::

           -------------------------------------------------
          |                Property Printout                |
           -------------------------------------------------

    * Orbital Energies and Occupations

         #    Occupation            Energy/Eh            Energy/eV
      -------------------------------------------------------------
         1        2.0000           -0.7225230             -19.6609
       ...           ...                  ...                  ...
       123        2.0000           -0.3903280             -10.6214
       124        2.0000           -0.3873222             -10.5396
       125        2.0000           -0.3861102             -10.5066
       126        2.0000           -0.3843977             -10.4600
       127        2.0000           -0.3828706             -10.4184
       128        2.0000           -0.3816702             -10.3858
       129        2.0000           -0.3774969             -10.2722
       130        2.0000           -0.3491015              -9.4995
       131        2.0000           -0.3339251              -9.0866
       132        2.0000           -0.3243595              -8.8263
       133        2.0000           -0.3208904              -8.7319
       134        2.0000           -0.3129960              -8.5171
       135        2.0000           -0.3107362              -8.4556 (HOMO)
       136                         -0.2778263              -7.5600 (LUMO)
       137                         -0.2513187              -6.8387
       138                         -0.2484057              -6.7595
       139                         -0.2467305              -6.7139
       140                         -0.2181134              -5.9352
       141                         -0.2071591              -5.6371
       142                         -0.2051345              -5.5820
       143                         -0.1982859              -5.3956
       144                         -0.1782481              -4.8504
       145                         -0.1519566              -4.1349
       146                         -0.1283095              -3.4915
       ...                                ...                  ...
       261                          3.7129373             101.0342
      -------------------------------------------------------------
                  HL-Gap            0.0329099 Eh            0.8955 eV
             Fermi-level           -0.2942391 Eh           -8.0067 eV

     #   Z          covCN         q      C6AA      α(0)
     1   7 N        2.544    -0.122    23.677     7.226
     2   6 C        2.955     0.078    26.256     8.404
     3   6 C        2.918    -0.042    29.038     8.837
     4   6 C        2.924    -0.021    28.540     8.761
     5   6 C        2.915    -0.043    29.056     8.839
     6   6 C        2.893     0.049    26.904     8.504
     7   1 H        0.926     0.054     2.276     2.359
     8   1 H        0.926     0.057     2.230     2.335
     9   1 H        0.926     0.047     2.355     2.400
    10   6 C        2.954     0.074    26.342     8.418
    11   7 N        2.556    -0.126    23.771     7.241
    12   6 C        2.890     0.043    27.037     8.525
    13   6 C        2.915    -0.044    29.091     8.844
    14   6 C        2.922    -0.023    28.579     8.767
    15   6 C        2.918    -0.045    29.119     8.849
    16   1 H        0.926     0.048     2.350     2.397
    17   1 H        0.926     0.052     2.296     2.370
    18   1 H        0.926     0.075     2.029     2.227
    19  77 Ir       5.937    -0.154   388.024    36.427
    20   1 H        0.977     0.090     1.876     2.140
    21   5 B        2.629     0.402    16.040     6.768
    22   8 O        1.638    -0.409    21.039     6.192
    23   6 C        3.836     0.130    18.445     6.110
    24   6 C        3.755    -0.122    22.889     6.822
    25   1 H        0.925     0.054     2.269     2.356
    26   1 H        0.925     0.045     2.379     2.412
    27   1 H        0.925     0.051     2.310     2.377
    28   6 C        3.754    -0.109    22.638     6.784
    29   1 H        0.925     0.048     2.348     2.396
    30   1 H        0.925     0.041     2.435     2.440
    31   1 H        0.925     0.027     2.623     2.533
    32   6 C        3.840     0.131    18.437     6.108
    33   8 O        1.637    -0.402    20.901     6.171
    34   6 C        3.755    -0.120    22.863     6.818
    35   1 H        0.925     0.049     2.336     2.390
    36   1 H        0.925     0.047     2.358     2.401
    37   1 H        0.925     0.050     2.314     2.379
    38   6 C        3.754    -0.120    22.858     6.817
    39   1 H        0.925     0.047     2.356     2.400
    40   1 H        0.925     0.054     2.276     2.359
    41   1 H        0.925     0.045     2.377     2.411
    42   5 B        2.625     0.404    16.032     6.769
    43   8 O        1.637    -0.382    20.518     6.114
    44   6 C        3.837     0.128    18.472     6.114
    45   6 C        3.755    -0.126    22.982     6.836
    46   1 H        0.925     0.055     2.256     2.349
    47   1 H        0.925     0.057     2.239     2.340
    48   1 H        0.925     0.050     2.318     2.381
    49   6 C        3.755    -0.122    22.903     6.824
    50   1 H        0.925     0.049     2.331     2.388
    51   1 H        0.925     0.046     2.368     2.406
    52   1 H        0.925     0.054     2.276     2.359
    53   6 C        3.833     0.128    18.487     6.117
    54   8 O        1.637    -0.383    20.530     6.116
    55   6 C        3.755    -0.124    22.941     6.829
    56   1 H        0.925     0.054     2.268     2.355
    57   1 H        0.925     0.054     2.269     2.356
    58   1 H        0.925     0.049     2.334     2.389
    59   6 C        3.755    -0.123    22.920     6.826
    60   1 H        0.925     0.044     2.395     2.420
    61   1 H        0.925     0.053     2.278     2.360
    62   1 H        0.925     0.049     2.328     2.386
    63   5 B        2.624     0.399    16.097     6.784
    64   8 O        1.637    -0.378    20.428     6.101
    65   6 C        3.831     0.125    18.532     6.125
    66   6 C        3.755    -0.131    23.076     6.849
    67   1 H        0.925     0.060     2.199     2.319
    68   1 H        0.925     0.054     2.272     2.357
    69   1 H        0.925     0.050     2.315     2.379
    70   6 C        3.755    -0.129    23.036     6.844
    71   1 H        0.925     0.060     2.197     2.318
    72   1 H        0.925     0.051     2.306     2.375
    73   1 H        0.925     0.051     2.301     2.372
    74   6 C        3.827     0.126    18.511     6.122
    75   8 O        1.637    -0.379    20.453     6.105
    76   6 C        3.755    -0.124    22.942     6.830
    77   1 H        0.925     0.051     2.307     2.375
    78   1 H        0.925     0.053     2.278     2.360
    79   1 H        0.925     0.055     2.259     2.351
    80   6 C        3.755    -0.123    22.918     6.826
    81   1 H        0.925     0.041     2.437     2.441
    82   1 H        0.925     0.051     2.304     2.374
    83   1 H        0.925     0.055     2.262     2.352
    84   1 H        0.926     0.054     2.267     2.354
    85   1 H        0.926     0.052     2.300     2.372
    86   6 C        2.832    -0.025    28.619     8.766
    87   6 C        2.932    -0.041    29.008     8.833
    88   6 C        2.922    -0.040    28.989     8.829
    89   6 C        2.989     0.017    27.627     8.622
    90   1 H        0.926     0.027     2.629     2.535
    91   6 C        2.913    -0.048    29.184     8.858
    92   1 H        0.926     0.049     2.332     2.388
    93   6 C        3.192     0.063    26.110     8.333
    94  16 S        2.224    -0.151   147.428    20.436
    95   1 H        0.926     0.052     2.298     2.370
    96   7 N        1.928    -0.263    27.686     7.802
    97   6 C        3.005     0.131    25.118     8.221
    98   6 C        3.773    -0.133    23.083     6.846
    99   1 H        0.925     0.078     2.000     2.212
   100   1 H        0.925     0.077     2.009     2.216
   101   1 H        0.925     0.082     1.958     2.188

 Mol. C6AA /au·bohr⁶  :     115687.178346
 Mol. C8AA /au·bohr⁸  :    3166146.185280
 Mol. α(0) /au        :        529.492996


Wiberg/Mayer (AO) data.
largest (>0.10) Wiberg bond orders for each atom

 ---------------------------------------------------------------------------
     #   Z sym  total        # sym  WBO       # sym  WBO       # sym  WBO
 ---------------------------------------------------------------------------
     1   7 N    3.397 --     6 C    1.389     2 C    1.314    19 Ir   0.436
     2   6 C    3.978 --     3 C    1.351     1 N    1.314    10 C    1.088
     3   6 C    3.988 --     4 C    1.481     2 C    1.351     9 H    0.962
                             6 C    0.106
     4   6 C    3.985 --     3 C    1.481     5 C    1.385    84 H    0.969
     5   6 C    3.979 --     6 C    1.459     4 C    1.385     8 H    0.968
     6   6 C    3.977 --     5 C    1.459     1 N    1.389     7 H    0.957
                             3 C    0.106
     7   1 H    0.997 --     6 C    0.957
     8   1 H    0.996 --     5 C    0.968
     9   1 H    0.997 --     3 C    0.962
    10   6 C    3.979 --    15 C    1.355    11 N    1.308     2 C    1.088
    11   7 N    3.407 --    12 C    1.389    10 C    1.308    19 Ir   0.429
    12   6 C    3.973 --    13 C    1.455    11 N    1.389    18 H    0.948
                            15 C    0.105
    13   6 C    3.981 --    12 C    1.455    14 C    1.388    17 H    0.969
    14   6 C    3.982 --    15 C    1.477    13 C    1.388    85 H    0.969
    15   6 C    3.989 --    14 C    1.477    10 C    1.355    16 H    0.962
                            12 C    0.105
    16   1 H    0.997 --    15 C    0.962
    17   1 H    0.996 --    13 C    0.969
    18   1 H    0.994 --    12 C    0.948
    19  77 Ir   5.158 --    63 B    0.869    42 B    0.858    21 B    0.732
                            86 C    0.589    20 H    0.530     1 N    0.436
                            11 N    0.429
    20   1 H    0.987 --    19 Ir   0.530    86 C    0.351
    21   5 B    3.271 --    33 O    1.112    22 O    1.090    19 Ir   0.732
    22   8 O    2.190 --    21 B    1.090    23 C    0.943
    23   6 C    3.943 --    24 C    0.997    28 C    0.990    22 O    0.943
                            32 C    0.941
    24   6 C    3.994 --    23 C    0.997    26 H    0.984    27 H    0.983
                            25 H    0.983
    25   1 H    0.997 --    24 C    0.983
    26   1 H    0.997 --    24 C    0.984
    27   1 H    0.997 --    24 C    0.983
    28   6 C    3.997 --    23 C    0.990    31 H    0.985    30 H    0.984
                            29 H    0.984
    29   1 H    0.997 --    28 C    0.984
    30   1 H    0.998 --    28 C    0.984
    31   1 H    0.999 --    28 C    0.985
    32   6 C    3.940 --    38 C    0.997    34 C    0.991    23 C    0.941
                            33 O    0.939
    33   8 O    2.203 --    21 B    1.112    32 C    0.939
    34   6 C    3.994 --    32 C    0.991    36 H    0.984    35 H    0.983
                            37 H    0.982
    35   1 H    0.998 --    34 C    0.983
    36   1 H    0.997 --    34 C    0.984
    37   1 H    0.997 --    34 C    0.982
    38   6 C    3.994 --    32 C    0.997    41 H    0.984    39 H    0.983
                            40 H    0.983
    39   1 H    0.998 --    38 C    0.983
    40   1 H    0.997 --    38 C    0.983
    41   1 H    0.997 --    38 C    0.984
    42   5 B    3.336 --    43 O    1.120    54 O    1.108    19 Ir   0.858
    43   8 O    2.227 --    42 B    1.120    44 C    0.935
    44   6 C    3.936 --    45 C    0.997    49 C    0.991    53 C    0.939
                            43 O    0.935
    45   6 C    3.992 --    44 C    0.997    48 H    0.983    46 H    0.982
                            47 H    0.982
    46   1 H    0.997 --    45 C    0.982
    47   1 H    0.997 --    45 C    0.982
    48   1 H    0.996 --    45 C    0.983
    49   6 C    3.994 --    44 C    0.991    50 H    0.983    51 H    0.983
                            52 H    0.979
    50   1 H    0.997 --    49 C    0.983
    51   1 H    0.998 --    49 C    0.983
    52   1 H    0.997 --    49 C    0.979
    53   6 C    3.937 --    55 C    0.996    59 C    0.992    44 C    0.939
                            54 O    0.934
    54   8 O    2.227 --    42 B    1.108    53 C    0.934
    55   6 C    3.993 --    53 C    0.996    58 H    0.983    57 H    0.983
                            56 H    0.982
    56   1 H    0.997 --    55 C    0.982
    57   1 H    0.997 --    55 C    0.983
    58   1 H    0.996 --    55 C    0.983
    59   6 C    3.994 --    53 C    0.992    62 H    0.983    61 H    0.983
                            60 H    0.982
    60   1 H    0.998 --    59 C    0.982
    61   1 H    0.996 --    59 C    0.983
    62   1 H    0.997 --    59 C    0.983
    63   5 B    3.363 --    75 O    1.120    64 O    1.114    19 Ir   0.869
    64   8 O    2.230 --    63 B    1.114    65 C    0.938
    65   6 C    3.937 --    70 C    0.996    66 C    0.991    64 O    0.938
                            74 C    0.937
    66   6 C    3.992 --    65 C    0.991    69 H    0.983    68 H    0.983
                            67 H    0.978
    67   1 H    0.996 --    66 C    0.978
    68   1 H    0.997 --    66 C    0.983
    69   1 H    0.996 --    66 C    0.983
    70   6 C    3.992 --    65 C    0.996    72 H    0.983    73 H    0.982
                            71 H    0.982
    71   1 H    0.996 --    70 C    0.982
    72   1 H    0.996 --    70 C    0.983
    73   1 H    0.997 --    70 C    0.982
    74   6 C    3.935 --    76 C    0.995    80 C    0.992    65 C    0.937
                            75 O    0.936
    75   8 O    2.236 --    63 B    1.120    74 C    0.936
    76   6 C    3.993 --    74 C    0.995    77 H    0.983    78 H    0.982
                            79 H    0.982
    77   1 H    0.996 --    76 C    0.983
    78   1 H    0.997 --    76 C    0.982
    79   1 H    0.997 --    76 C    0.982
    80   6 C    3.995 --    74 C    0.992    81 H    0.984    83 H    0.983
                            82 H    0.983
    81   1 H    0.998 --    80 C    0.984
    82   1 H    0.997 --    80 C    0.983
    83   1 H    0.996 --    80 C    0.983
    84   1 H    0.996 --     4 C    0.969
    85   1 H    0.996 --    14 C    0.969
    86   6 C    3.943 --    87 C    1.402    88 C    1.336    19 Ir   0.589
                            20 H    0.351
    87   6 C    3.987 --    86 C    1.402    89 C    1.389    90 H    0.962
    88   6 C    3.988 --    91 C    1.496    86 C    1.336    92 H    0.960
    89   6 C    3.947 --    87 C    1.389    93 C    1.274    94 S    1.092
    90   1 H    0.999 --    87 C    0.962
    91   6 C    3.983 --    88 C    1.496    93 C    1.324    95 H    0.964
    92   1 H    0.996 --    88 C    0.960
    93   6 C    3.972 --    91 C    1.324    89 C    1.274    96 N    1.174
    94  16 S    2.490 --    89 C    1.092    97 C    1.055    96 N    0.163
    95   1 H    0.996 --    91 C    0.964
    96   7 N    3.132 --    97 C    1.688    93 C    1.174    94 S    0.163
    97   6 C    3.940 --    96 N    1.688    94 S    1.055    98 C    1.043
    98   6 C    3.989 --    97 C    1.043   101 H    0.974   100 H    0.962
                            99 H    0.961
    99   1 H    0.990 --    98 C    0.961
   100   1 H    0.990 --    98 C    0.962
   101   1 H    0.993 --    98 C    0.974
 ---------------------------------------------------------------------------

Topologies differ in total number of bonds
Writing topology from bond orders to xtbtopo.mol

molecular dipole:
                 x           y           z       tot (Debye)
 q only:        0.202       0.585      -1.139
   full:       -1.006       0.829      -1.785       5.619
molecular quadrupole (traceless):
                xx          xy          yy          xz          yz          zz
 q only:       13.193       1.723      -5.681      -1.648      12.597      -7.513
  q+dip:       17.797       2.588      -5.136      -1.168      18.835     -12.662
   full:       14.747       3.156      -1.806      -3.311      15.771     -12.941


           -------------------------------------------------
          | TOTAL ENERGY             -147.431272809831 Eh   |
          | GRADIENT NORM               0.034380668919 Eh/α |
          | HOMO-LUMO GAP               0.895524141983 eV   |
           -------------------------------------------------

------------------------------------------------------------------------
 * finished run on 2022/01/14 at 13:13:12.777     
------------------------------------------------------------------------
 total:
 * wall-time:     0 d,  0 h,  0 min,  0.127 sec
 *  cpu-time:     0 d,  0 h,  0 min,  0.737 sec
 * ratio c/w:     5.821 speedup
 SCF:
 * wall-time:     0 d,  0 h,  0 min,  0.096 sec
 *  cpu-time:     0 d,  0 h,  0 min,  0.569 sec
 * ratio c/w:     5.949 speedup

