23
 energy: -30.318501033164 gnorm: 0.047218356445 xtb: 6.4.1 (1a32961)
C        -0.90843000000000    0.07792000000000    0.64004000000000
C        -0.09846000000000    0.88228000000000    1.41513000000000
C         1.01747000000000    0.10232000000000    1.80161000000000
C         0.82867000000000   -1.16366000000000    1.28792000000000
N        -0.37555000000000   -1.18988000000000    0.63314000000000
O        -0.79638000000000   -2.28955000000000   -0.10965000000000
Si       -2.40011000000000   -2.75653000000000    0.03373000000000
C        -3.28167000000000   -2.15440000000000    1.57964000000000
C        -3.32688000000000   -2.11386000000000   -1.48284000000000
C        -2.55323000000000   -4.63977000000000    0.02215000000000
H        -1.82539000000000    0.30877000000000    0.11682000000000
H        -0.27271000000000    1.92744000000000    1.63954000000000
H         1.87813000000000    0.43499000000000    2.36800000000000
H         1.45410000000000   -2.04344000000000    1.31014000000000
H        -3.32192000000000   -1.06333000000000    1.62798000000000
H        -2.78223000000000   -2.52348000000000    2.47989000000000
H        -4.31303000000000   -2.52169000000000    1.58958000000000
H        -3.26268000000000   -1.02387000000000   -1.53703000000000
H        -4.38056000000000   -2.40117000000000   -1.44195000000000
H        -2.88404000000000   -2.52896000000000   -2.39393000000000
H        -2.07261000000000   -5.06866000000000    0.90567000000000
H        -2.08539000000000   -5.06063000000000   -0.87175000000000
H        -3.60742000000000   -4.93453000000000    0.02834000000000
23
 energy: -30.323738075194 gnorm: 0.021050088384 xtb: 6.4.1 (1a32961)
C        -0.91083036311870    0.06898813856358    0.64322965580309
C        -0.08346991517321    0.87574706243044    1.38225761686030
C         1.01482675929903    0.09166485246528    1.78902690038503
C         0.82216428455152   -1.16900289818017    1.28603043380873
N        -0.36324740558219   -1.17617513154796    0.61839237058634
O        -0.82171442399340   -2.27799252413995   -0.08640115777631
Si       -2.42946555711388   -2.75465577320227    0.03121938583626
C        -3.28207572830373   -2.13862307934348    1.60547565679471
C        -3.33122273967828   -2.09502919573216   -1.50520557144791
C        -2.51656213108494   -4.65027617111405    0.02280375477916
H        -1.83698403385475    0.28753167939316    0.14721034667876
H        -0.25900126545317    1.91027449082954    1.61466825239021
H         1.85533368485662    0.41511204550652    2.37568854814019
H         1.42660189303132   -2.05468324106813    1.33940397101429
H        -3.32439005581842   -1.05416871455387    1.66599645590879
H        -2.78922812868184   -2.49981699270139    2.50549300740204
H        -4.30549607992658   -2.50454561082344    1.62474042098270
H        -3.28776319731016   -1.01085997033361   -1.58011576241541
H        -4.37762935921541   -2.38185731329742   -1.48026476944501
H        -2.89954162776530   -2.50192653637618   -2.41665910673892
H        -2.05029910528492   -5.09751544160873    0.89685159716647
H        -2.05777833676887   -5.08273933763105   -0.86147989968074
H        -3.56254716761075   -4.94314033753465    0.02380789296724
23
 energy: -30.325452881478 gnorm: 0.011445920558 xtb: 6.4.1 (1a32961)
C        -0.90618958605959    0.06064973200473    0.63709576167113
C        -0.07699500420401    0.86679996369027    1.37061742666584
C         1.01401895282438    0.08140512614176    1.78071856480218
C         0.81184677935640   -1.18137764211309    1.29013091389432
N        -0.35520087631965   -1.17010690727086    0.60783347751342
O        -0.85313321205252   -2.27408662515266   -0.05229352275721
Si       -2.46704281674538   -2.75192032108487    0.03111298484150
C        -3.29572893583598   -2.12780330990547    1.62731769517522
C        -3.34617078280177   -2.08320418592654   -1.52266459899730
C        -2.48881494137662   -4.65436900985013    0.01858278886704
H        -1.83151157207782    0.27253793971197    0.14624073198064
H        -0.24327172798760    1.90040751384529    1.59503615349271
H         1.84765850804657    0.40245781820672    2.37052079585729
H         1.39935513874509   -2.07331972286496    1.36648296683377
H        -3.32537972503965   -1.04555112774545    1.68893183175845
H        -2.78389250297158   -2.48703191148855    2.51468209615864
H        -4.31857395921364   -2.48584388022683    1.67370193314842
H        -3.30436633863012   -1.00152217044190   -1.59782897114254
H        -4.39229232017106   -2.36801797242846   -1.52181727702138
H        -2.90087195671064   -2.48565089030352   -2.42648985460238
H        -2.01521745034359   -5.08897329741799    0.89068872915723
H        -2.01410722819004   -5.07235681854973   -0.86043737087747
H        -3.52443844224119   -4.97681230082970    0.01400674358049
23
 energy: -30.326152195177 gnorm: 0.009828288860 xtb: 6.4.1 (1a32961)
C        -0.90243068746648    0.05603972730654    0.62804329157443
C        -0.06736237047475    0.86351432518061    1.35776637553627
C         1.01166037031009    0.06975240385379    1.78118123283212
C         0.80177213173481   -1.19567997920282    1.29409548290214
N        -0.35532337376322   -1.17292613199849    0.60106148136830
O        -0.88184758912848   -2.27907019551309   -0.02276288297001
Si       -2.50075780974303   -2.74884083294344    0.03471444225915
C        -3.31337973056148   -2.12138966942684    1.64253296758690
C        -3.36167122417419   -2.07523264855080   -1.53027749127997
C        -2.46749220828486   -4.65243218467433    0.01322538414277
H        -1.82589236280078    0.26718355448688    0.13393340578942
H        -0.22072522806609    1.90195081336300    1.57007209163956
H         1.84421331894354    0.38812710461818    2.37386600047903
H         1.37852956522649   -2.09279200483051    1.38398574181950
H        -3.33112995552259   -1.03829700620665    1.70119940333966
H        -2.77902567271446   -2.48148007416628    2.51737226303755
H        -4.33789399481225   -2.47133008752698    1.71672192073707
H        -3.31884818748644   -0.99297190636899   -1.59958530387626
H        -4.40840122004177   -2.36096641308862   -1.55170684608233
H        -2.89696130932806   -2.47379207534267   -2.42710482903567
H        -1.97892734130816   -5.06820259859556    0.88676606079013
H        -1.96770785529077   -5.04622377040172   -0.86438957678536
H        -3.49071726524710   -5.01863034997116    0.00145938419563
23
 energy: -30.326552044915 gnorm: 0.007257553564 xtb: 6.4.1 (1a32961)
C        -0.89566577756557    0.05546972159212    0.61253147347531
C        -0.05765691415846    0.86019154378154    1.34550608643347
C         1.01079571125151    0.05791095014046    1.77965794799143
C         0.78879950386513   -1.21182608966944    1.30271065949152
N        -0.36152837039293   -1.18090928673787    0.59813405426195
O        -0.90841386523922   -2.29017348664671    0.00630580019822
Si       -2.53102290231136   -2.74601512242172    0.04200236818757
C        -3.33388702177105   -2.11815630201660    1.65434205182416
C        -3.37716845772616   -2.06819020274437   -1.52898616605714
C        -2.44537544066156   -4.64636666266646    0.00666628492645
H        -1.81324901168778    0.27147067500348    0.10725114548073
H        -0.19697686406171    1.90469005058068    1.54445994088768
H         1.84575643075893    0.37318912120074    2.37264446114441
H         1.35616482526030   -2.11422223684814    1.40406975671944
H        -3.34429266129954   -1.03360441653951    1.70880514815158
H        -2.78201315032929   -2.47836438067571    2.51974546238713
H        -4.35864845791119   -2.46222960899929    1.75085607687455
H        -3.33645268923425   -0.98424428379973   -1.58959066536048
H        -4.42277771841469   -2.35838853560452   -1.57065352731829
H        -2.89310421036249   -2.45974786990320   -2.42053295913350
H        -1.94197110035684   -5.04474418395718    0.88191517915744
H        -1.91879321102384   -5.01092057466117   -0.87085556189197
H        -3.45283864662798   -5.05850881840726   -0.01481501783161
23
 energy: -30.326744316330 gnorm: 0.004622428854 xtb: 6.4.1 (1a32961)
C        -0.88943074164377    0.05629568428402    0.59909461101903
C        -0.04697388837243    0.85940594932856    1.32999163770044
C         1.01025512779951    0.04949881237423    1.77938988397019
C         0.77895162096904   -1.22218592590287    1.31146780620119
N        -0.36818345769858   -1.18868047884874    0.59915870025610
O        -0.92304825516765   -2.30064619001350    0.02576126003413
Si       -2.54650515339577   -2.74501651534827    0.04985311548674
C        -3.35013941688036   -2.11923542570967    1.65999779414725
C        -3.38754870583515   -2.06312276410927   -1.51999862405438
C        -2.42778819497367   -4.64018451252757    0.00036926251732
H        -1.80134961352009    0.27759336861398    0.08345174129778
H        -0.17595029204177    1.90820965010957    1.51717677700250
H         1.84689526751162    0.36146758032332    2.37344600385807
H         1.33930753374782   -2.12853571875856    1.42136314727211
H        -3.36080753567764   -1.03378427066872    1.71046374394931
H        -2.79308377493875   -2.47686249296706    2.52319976471314
H        -4.37362942943189   -2.46251869073530    1.76417682140515
H        -3.35294735379942   -0.97774803596584   -1.57169183855838
H        -4.43055878303521   -2.35999416962480   -1.57284672095059
H        -2.89228268716878   -2.44522896642873   -2.41020592091547
H        -1.91724980761037   -5.03091640455509    0.87563595394928
H        -1.88610318194816   -4.98256026115415   -0.87752275579038
H        -3.42214927688863   -5.07894022171535   -0.02956216451046
23
 energy: -30.326864764202 gnorm: 0.003637173709 xtb: 6.4.1 (1a32961)
C        -0.88253827653049    0.05682228115425    0.58700560944867
C        -0.03727464302440    0.85918233733662    1.31423423345473
C         1.01190472202785    0.04581102067786    1.77638967380321
C         0.77207691739915   -1.22791834161992    1.32095773874766
N        -0.37240477649937   -1.19459095065986    0.60216926042097
O        -0.92905623158018   -2.30935377228733    0.03886636363704
Si       -2.55184110288894   -2.74540749053963    0.05726323689889
C        -3.36259101403552   -2.12234963649919    1.66268471748161
C        -3.39399094690487   -2.05793966226973   -1.50776465763514
C        -2.41481553829879   -4.63615970268172   -0.00567938385864
H        -1.78950061381795    0.28166911792692    0.06330895900104
H        -0.16015449381051    1.91021197269481    1.49175264080019
H         1.84849252666874    0.35564795156487    2.37197010234746
H         1.32520656267143   -2.13807471887349    1.44104002178413
H        -3.37826760307543   -1.03651502232098    1.70959532412292
H        -2.80787707825689   -2.47494225462046    2.52891457551555
H        -4.38462329709792   -2.46859910505295    1.76440365673485
H        -3.36860481600411   -0.97166983397339   -1.55038411853091
H        -4.43383773812512   -2.36271291975796   -1.56555239718122
H        -2.89384907704137   -2.42830496364118   -2.39991527107390
H        -1.90260947139448   -5.02656063854158    0.86837598438980
H        -1.86456936726149   -4.96226714832225   -0.88342185636258
H        -3.39959464311946   -5.08966851969346   -0.04404441394623
23
 energy: -30.326961845576 gnorm: 0.003786293756 xtb: 6.4.1 (1a32961)
C        -0.87512518171503    0.05621737293599    0.57637870759724
C        -0.02618589075818    0.86019574900558    1.29597678899793
C         1.01487855212828    0.04470756849953    1.77297406351962
C         0.76724986876942   -1.23125394639273    1.33153052665175
N        -0.37440205763603   -1.19909990102500    0.60742606599033
O        -0.93144517093261   -2.31666021444778    0.05050121190065
Si       -2.55321063351543   -2.74677990303578    0.06460927930347
C        -3.37439148289180   -2.12673495164594    1.66508927786720
C        -3.39925558744241   -2.05134536534454   -1.49425897627854
C        -2.40421209638299   -4.63500535531269   -0.01237156205323
H        -1.77791352941182    0.28241386428944    0.04644805013428
H        -0.14335738890841    1.91358243975400    1.46146860709353
H         1.85058358355350    0.35391429656695    2.36946778379479
H         1.31224662091412   -2.14481237501981    1.46343413364778
H        -3.39733137202913   -1.04079467474515    1.70836782755434
H        -2.82506293198927   -2.47267455419901    2.53708913883346
H        -4.39529398315556   -2.47840039354316    1.75934137682938
H        -3.38574981566186   -0.96448032659970   -1.52565565883800
H        -4.43576703715342   -2.36584992297256   -1.55516078557813
H        -2.89602826397692   -2.40679377533551   -2.39037754301191
H        -1.89348585519003   -5.02842505559782    0.86075975943823
H        -1.84490743251507   -4.94648561907509   -0.88903771444802
H        -3.38215291409950   -5.09912495675890   -0.06183035894601
23
 energy: -30.327060366944 gnorm: 0.003413422621 xtb: 6.4.1 (1a32961)
C        -0.86550953085845    0.05529762361785    0.56448215108718
C        -0.01318701000959    0.86260705834919    1.27512549899745
C         1.02008975358546    0.04672504391969    1.76789430036820
C         0.76362534252940   -1.23318999809106    1.34494949636859
N        -0.37451195954795   -1.20260533916369    0.61556414942713
O        -0.93184351451249   -2.32329249709749    0.06369764147830
Si       -2.55278058028658   -2.74935866880949    0.07226340088422
C        -3.38713286482626   -2.13353063263601    1.66810371716306
C        -3.40460476063267   -2.04298460134434   -1.47920292178323
C        -2.39472489045397   -4.63653411347305   -0.02071933574825
H        -1.76426306137381    0.28096485594541    0.02833468931920
H        -0.12394663482042    1.91881823669674    1.42521084340745
H         1.85477654968909    0.35747377824753    2.36409531399694
H         1.29878051762535   -2.15017913896922    1.49238861325832
H        -3.41925572415620   -1.04766055803652    1.70789459073236
H        -2.84478466356541   -2.47214917051793    2.54728088762388
H        -4.40694465282925   -2.49270690945035    1.75195433998803
H        -3.40697658906530   -0.95565128546588   -1.49498559308834
H        -4.43711059838259   -2.37048634941423   -1.54372585600179
H        -2.89776397585022   -2.37837936136157   -2.38097606674747
H        -1.88963387848069   -5.03590013756367    0.85276381482610
H        -1.82449250573739   -4.93425768338893   -0.89480513700481
H        -3.36812476804027   -5.10671015199254   -0.08541853855231
23
 energy: -30.327155804026 gnorm: 0.002677148298 xtb: 6.4.1 (1a32961)
C        -0.85319251611231    0.05486137554540    0.55046512761610
C         0.00318260588382    0.86735476055271    1.25035630981395
C         1.02669152936653    0.05116603656779    1.76315852748118
C         0.76113283791226   -1.23363139095037    1.36102697651982
N        -0.37313997201735   -1.20511976976427    0.62665357987284
O        -0.93173368497113   -2.32907563349417    0.08042533889494
Si       -2.55246303888027   -2.75271541646184    0.08030292853337
C        -3.40180332728967   -2.14416689985918    1.67235988191303
C        -3.41068731625417   -2.03331572721957   -1.46290011994473
C        -2.38670283113093   -4.63943123236792   -0.03105512521932
H        -1.74786275712473    0.27842402523742    0.00730614014801
H        -0.09886014187156    1.92727918881850    1.38034436582085
H         1.86076741500496    0.36547220304503    2.35785413458268
H         1.28550669911607   -2.15325035720051    1.52711185327911
H        -3.44453020943205   -1.05853499941646    1.70983988860076
H        -2.86609668947619   -2.47642370111523    2.55802180449480
H        -4.41999613387658   -2.51239771781200    1.74538463146077
H        -3.43331185693099   -0.94587915985312   -1.45837900986282
H        -4.43793495767272   -2.37755328639577   -1.53361219700529
H        -2.89800563167040   -2.34308453276069   -2.37081478690890
H        -1.89205211944369   -5.04700689338447    0.84469736898801
H        -1.80185658417097   -4.92377528636854   -0.90019808324535
H        -3.35737131895816   -5.11288558534215   -0.11617953583353
23
 energy: -30.327240486556 gnorm: 0.002629889147 xtb: 6.4.1 (1a32961)
C        -0.83775285439529    0.05607917325466    0.53332094375419
C         0.02261072707765    0.87405565605617    1.22264465456964
C         1.03516230235315    0.05829110441408    1.75709011058907
C         0.75881637064275   -1.23255483737783    1.37969359986538
N        -0.37097535934775   -1.20623717828831    0.63929355674631
O        -0.93257091683527   -2.33373055760696    0.10124532404897
Si       -2.55373163475239   -2.75614689514244    0.08869760281763
C        -3.41862703032957   -2.15976506390473    1.67835553174913
C        -3.41730003091836   -2.02291214351301   -1.44607576191477
C        -2.38010400944671   -4.64207096389288   -0.04312108105087
H        -1.72783083801700    0.27678193983088   -0.01823721972428
H        -0.06869953890818    1.93762280876681    1.32997071301753
H         1.86916603218750    0.37745289158143    2.34943064739942
H         1.27127467820194   -2.15444853646386    1.56882515182994
H        -3.47284935601352   -1.07457143797686    1.71603405688382
H        -2.88760408621751   -2.48795198798596    2.56821693500995
H        -4.43425817657764   -2.53818697914885    1.74178446754591
H        -3.46373783341817   -0.93628004090958   -1.41828357910649
H        -4.43764501492549   -2.38691232430358   -1.52680233888141
H        -2.89585083541539   -2.30285660952432   -2.35894979537195
H        -1.90125095767446   -5.05996133072184    0.83689291786438
H        -1.77753009758969   -4.91372786335207   -0.90462939549606
H        -3.34903153968089   -5.11565882379021   -0.15322704214511
23
 energy: -30.327306036018 gnorm: 0.002790243402 xtb: 6.4.1 (1a32961)
C        -0.82346929786562    0.05838199655020    0.51735781327123
C         0.04067201992555    0.88123776952966    1.19720645146803
C         1.04222471331871    0.06586517231675    1.75249159314912
C         0.75692992440588   -1.22932100106879    1.39591180586464
N        -0.36896841573099   -1.20558887170137    0.65002358852701
O        -0.93429243396960   -2.33597776978335    0.12109659011654
Si       -2.55611746218081   -2.75852584997894    0.09569189398213
C        -3.43297622100274   -2.17760472528284    1.68523779490330
C        -3.42185036654354   -2.01388031174958   -1.43268909153729
C        -2.37761884131306   -4.64305056697994   -0.05389137879628
H        -1.70905260349071    0.27618308636284   -0.04258636704820
H        -0.04005740649288    1.94757330991922    1.28400585110687
H         1.87652570239670    0.38951745229534    2.34250132160308
H         1.25992223472452   -2.15143725559462    1.60567726801588
H        -3.49677323663029   -1.09304289446236    1.72673180683549
H        -2.90357266087262   -2.50564192866687    2.57587058135459
H        -4.44566103557494   -2.56490726112217    1.74211275444639
H        -3.48983552482585   -0.92922012629881   -1.38491929193033
H        -4.43498607893829   -2.39546318077146   -1.52556960798278
H        -2.89063052732092   -2.26746950332746   -2.34732948742336
H        -1.91604865188463   -5.07100396701374    0.83087078522965
H        -1.75894851022835   -4.90635126810440   -0.90645418403462
H        -3.34573531990585   -5.11396230506641   -0.18717849112067
23
 energy: -30.327359654762 gnorm: 0.002579116643 xtb: 6.4.1 (1a32961)
C        -0.81225856634324    0.06129295626574    0.50319610588163
C         0.05435793753812    0.88743351306641    1.17632381434418
C         1.04721980066520    0.07324524610595    1.74747076616097
C         0.75438380878367   -1.22509966898181    1.40816042873233
N        -0.36798036891271   -1.20377330185003    0.65656871319968
O        -0.93721104551109   -2.33671616181461    0.13770459972442
Si       -2.55956679159804   -2.75959122153012    0.10119847531624
C        -3.44257539255435   -2.19516702415371    1.69303549057693
C        -3.42306234706308   -2.00643267785652   -1.42395392693181
C        -2.37934530199353   -4.64233311575047   -0.06185753041302
H        -1.69405299147485    0.27665600073868   -0.06377916300983
H        -0.01803746979947    1.95497765384712    1.24798560623776
H         1.88155165413864    0.40006164275057    2.33626089994863
H         1.25012432196769   -2.14682051867122    1.63600353873315
H        -3.51249542610633   -1.11133617759383    1.74189033243488
H        -2.91180422253450   -2.52709220157248    2.58125030358860
H        -4.45257540414449   -2.58874191842599    1.74660547516267
H        -3.50821331360172   -0.92439017392736   -1.36113516666124
H        -4.42944908220337   -2.40175175346401   -1.53060054555268
H        -2.88111942263497   -2.23915952062716   -2.33727354481407
H        -1.93354790177760   -5.07884880440409    0.82685638021963
H        -1.74771420998546   -4.90076224269241   -0.90609375320690
H        -3.34694826485493   -5.10934052945763   -0.21364729967167
23
 energy: -30.327407001530 gnorm: 0.002169336764 xtb: 6.4.1 (1a32961)
C        -0.80368337317187    0.06383192008890    0.48925422410907
C         0.06526222514760    0.89302457997534    1.15575259831823
C         1.04915917979527    0.07938098186246    1.74325210304481
C         0.75014789930407   -1.22070428705898    1.41805306520252
N        -0.36871557568689   -1.20234620917046    0.66055992481042
O        -0.94145918486436   -2.33780367186195    0.15298767708530
Si       -2.56391623803157   -2.75989362033978    0.10681261397131
C        -3.44884889126537   -2.21271793308228    1.70269648233880
C        -3.42135968123935   -1.99862508265963   -1.41717997083427
C        -2.38357584923218   -4.64067809308051   -0.06811251464498
H        -1.68133480807128    0.27745798219598   -0.08507209927733
H         0.00091585165509    1.96204622060114    1.21266509947581
H         1.88306842673031    0.40803900464151    2.33191405445524
H         1.24011873498094   -2.14107906362637    1.66106592960786
H        -3.52237991916500   -1.12966364550221    1.76243996210072
H        -2.91489119578655   -2.55173697452930    2.58642901692579
H        -4.45672483814349   -2.61061733480542    1.75461215432971
H        -3.52311026572572   -0.91911403789795   -1.34061598347082
H        -4.42060216861631   -2.40699421049584   -1.54104523582465
H        -2.86533765262900   -2.21139725608455   -2.32706965855187
H        -1.95254386553189   -5.08478257486414    0.82388160413565
H        -1.74040670911645   -4.89514193826733   -0.90458875847976
H        -3.35010210133644   -5.10417475603748   -0.23652228882704
23
 energy: -30.327442879280 gnorm: 0.001628471846 xtb: 6.4.1 (1a32961)
C        -0.79829380496432    0.06514187223020    0.47622770962868
C         0.07112449485936    0.89659076965738    1.13856865208310
C         1.04929787057967    0.08504310560570    1.73741595208519
C         0.74504498943134   -1.21694673612490    1.42503355882399
N        -0.37014801704299   -1.20173567258391    0.66130510761067
O        -0.94515588371981   -2.34004202974967    0.16453883213836
Si       -2.56740503891206   -2.75959429147330    0.11205946809459
C        -3.45111388245400   -2.22720656234731    1.71269318713818
C        -3.41697491218313   -1.99069293363833   -1.41210770444206
C        -2.38909966780914   -4.63907938936399   -0.07225435409075
H        -1.67231743953106    0.27738900006666   -0.10425800965730
H         0.01113458521126    1.96578037901103    1.18546074067371
H         1.88186350701894    0.41481514179802    2.32737927927096
H         1.22997405537062   -2.13693013475915    1.68124839997645
H        -3.52512665738644   -1.14489675865724    1.78468750538114
H        -2.91426759120593   -2.57531438103376    2.59142592225263
H        -4.45816967234513   -2.62660169157417    1.76340922755646
H        -3.53179211497971   -0.91363397943401   -1.32588802249841
H        -4.40958682359208   -2.40834251698343   -1.55297593500077
H        -2.84765303851267   -2.18788138439120   -2.31696591132009
H        -1.96972633133770   -5.08941634929835    0.82184810658276
H        -1.73747801743561   -4.89070816863886   -0.90277652784028
H        -3.35445060905989   -5.09942728831614   -0.25390518444661
23
 energy: -30.327472894158 gnorm: 0.002254080684 xtb: 6.4.1 (1a32961)
C        -0.79432892237323    0.06325726982575    0.46002132744862
C         0.07565816682911    0.89944776142896    1.11523892970552
C         1.04607043548735    0.09062196345073    1.73172945600419
C         0.73766763064599   -1.21295438883802    1.43345744330758
N        -0.37268829085660   -1.20368770842560    0.66241233924196
O        -0.94852688343997   -2.34607171707476    0.17842865252255
Si       -2.57042872394590   -2.75945912128496    0.11984499009775
C        -3.45203948552422   -2.24350862823990    1.72633877450922
C        -3.40945470118857   -1.97850133760899   -1.40394322684238
C        -2.39632195306119   -4.63794490501824   -0.07709167930679
H        -1.66287703829911    0.27338338799791   -0.12957233106716
H         0.02078420581501    1.97031967097837    1.14606876111956
H         1.87693406537150    0.42309552463022    2.32210303491863
H         1.21783283796475   -2.13098091172067    1.70143411580783
H        -3.52372948697423   -1.16216944679914    1.81430838646019
H        -2.91415599471721   -2.60459500231594    2.59952303211766
H        -4.45965878174582   -2.64194130726011    1.77363843068347
H        -3.54289706388226   -0.90388234209926   -1.30280776403515
H        -4.39263448387664   -2.40989808539904   -1.56916238158420
H        -2.82032013863253   -2.15257382501171   -2.30217235910644
H        -1.99106979324208   -5.09659238020661    0.81916308063453
H        -1.73423530289878   -4.88505650791812   -0.90075341405054
H        -3.35990029745592   -5.09399796308943   -0.27603759858593
23
 energy: -30.327487044350 gnorm: 0.001315055676 xtb: 6.4.1 (1a32961)
C        -0.79364108716337    0.06082657487758    0.45331524471896
C         0.07505707660945    0.89936032873194    1.10693612648940
C         1.04448646979304    0.09345967168181    1.72827199276521
C         0.73577531141656   -1.21142003108387    1.43578505222877
N        -0.37250177339932   -1.20519756145921    0.66189403173189
O        -0.94778872523712   -2.35005493121105    0.18234322106821
Si       -2.56996760368213   -2.75968194149275    0.12288855360091
C        -3.45121511625935   -2.24772196242520    1.73100146455845
C        -3.40609286435196   -1.97314776413350   -1.39971897923241
C        -2.39875533254692   -4.63835101604872   -0.07901596781952
H        -1.66084029988680    0.26896713946845   -0.13862399928015
H         0.01903615122773    1.96966187371301    1.13433662458776
H         1.87363544404642    0.42794140733308    2.31987137377382
H         1.21379599882038   -2.12988769070326    1.70956666502828
H        -3.51980124846553   -1.16673891034493    1.82397996564852
H        -2.91520372811964   -2.61437217531241    2.60295285760155
H        -4.46015700622596   -2.64357786599789    1.77558610996338
H        -3.54354205465648   -0.90022101809648   -1.29495207189131
H        -4.38600056705843   -2.40610221410495   -1.57201033311774
H        -2.81312341728256   -2.14076676636956   -2.29518125749272
H        -1.99767419981589   -5.10058753902292    0.81721876297906
H        -1.73375969491580   -4.88389914620128   -0.90076386557946
H        -3.36204173284687   -5.09217846179639   -0.28351157233017
23
 energy: -30.327506336861 gnorm: 0.002193681992 xtb: 6.4.1 (1a32961)
C        -0.79179739205234    0.05289663608454    0.43918233416382
C         0.07331335757063    0.89757044724706    1.08921213887453
C         1.04124184326310    0.09917409957259    1.72127174194763
C         0.73300774561049   -1.20941275051106    1.44242005561464
N        -0.37103846018726   -1.21062211772211    0.66302301291756
O        -0.94422584098380   -2.36097690810185    0.19144938564665
Si       -2.56778766052246   -2.76173291090648    0.12948890018023
C        -3.45037119523544   -2.25389639885374    1.73895393816227
C        -3.40078355835598   -1.96154404358999   -1.38818550311199
C        -2.40205433455260   -4.64047256352016   -0.08394518843519
H        -1.65610645643093    0.25557283744964   -0.15826898260142
H         0.01469425405140    1.96738686469644    1.10717218714067
H         1.86688778984676    0.44025854735059    2.31387719305862
H         1.20760704513713   -2.12760044925095    1.72677366769001
H        -3.51068025626235   -1.17333830970415    1.83865569793071
H        -2.92181328657479   -2.63062341785162    2.61081622160911
H        -4.46307358585477   -2.64193599849004    1.77590607879008
H        -3.55252461733844   -0.89097324515669   -1.26723756273876
H        -4.37343389754724   -2.40450147638453   -1.57757041880680
H        -2.79598928671981   -2.10689076710393   -2.28087557410570
H        -2.00942416423021   -5.11084275971458    0.81188335844001
H        -1.73109246907869   -4.88204219491109   -0.90178937924283
H        -3.36487557355302   -5.08914312062628   -0.30004330312312
23
 energy: -30.327520322236 gnorm: 0.001792376289 xtb: 6.4.1 (1a32961)
C        -0.79146684057119    0.04569771319136    0.43069762801405
C         0.07067904986032    0.89596472303170    1.07770512232686
C         1.03663130107161    0.10252387334502    1.71994180227505
C         0.73175644281360   -1.20760993853378    1.44736174627624
N        -0.36971471646922   -1.21516180993007    0.66477780627977
O        -0.94041598413496   -2.36885201752055    0.19737159209148
Si       -2.56548060779947   -2.76386254498629    0.13339036499487
C        -3.44839083341100   -2.25752902281164    1.74365584059302
C        -3.39710612935538   -1.95367139441536   -1.37992010747629
C        -2.40482493085646   -4.64235943526926   -0.08776654166044
H        -1.65308527667747    0.24381507048714   -0.17211839801777
H         0.01128392232720    1.96676330016409    1.08607985561055
H         1.85998965467811    0.44946902100572    2.31220953762707