102
 energy: -151.678774298373 gnorm: 0.000276721335 xtb: 6.4.1 (1a32961)
N        -0.97545408928023   -2.01734912901155   -0.34069318033689
C        -2.23087127441213   -1.54431370369893   -0.45642565748509
C        -3.14531457636187   -2.14063551499869   -1.33521537328137
C        -2.75683101057021   -3.21598712606567   -2.10331017553798
C        -1.45153623679907   -3.68714257190516   -1.97967318343287
C        -0.61078163571282   -3.05547686893902   -1.08743868801826
H         0.40786807555248   -3.38957341900900   -0.94986795191022
H        -1.10408097606557   -4.52568348578777   -2.56087921073311
H        -4.15248771327982   -1.76621580397441   -1.41666054074753
C        -2.56319603564489   -0.39084121606173    0.36968354400810
N        -1.58669283308446    0.06848761803390    1.18230574483319
C        -1.84326939139369    1.11925529927855    1.95916849051190
C        -3.05753957088149    1.77314671498769    1.97885124592882
C        -4.07084778432676    1.32038956156408    1.13663529535849
C        -3.81574075021898    0.23463725574961    0.32755526259022
H        -4.58590852601983   -0.12564474063320   -0.33417703692380
H        -3.21337093992741    2.61245999511472    2.63728436847222
H        -1.02333383148391    1.43716843852234    2.58501843240263
Ir        0.42150000000022   -0.81650000000000    0.91329999999968
H         0.87260000000021   -2.23030000000011    1.54050000000001
B         0.33365648883137    0.63732885414551   -0.57720441623695
O        -0.24606286519555    0.33646920044676   -1.79611879787584
C        -0.42606684952389    1.53355125270615   -2.56151098288771
C        -0.10791976288280    1.26070501348567   -4.02919834794109
H         0.86255559399344    0.78613251920581   -4.12852468256213
H        -0.12166028919447    2.18977795600001   -4.59331569104975
H        -0.85869127631751    0.58917680263184   -4.43875025316907
C        -1.90252000316366    1.93457486608405   -2.42882946928512
H        -2.12809098639058    2.80823423767168   -3.03311814442351
H        -2.51992433219937    1.10252242103312   -2.76197714744215
H        -2.14396780559126    2.13667478867832   -1.38704188633767
C         0.53791054303450    2.53728850354244   -1.84989777750011
O         0.64904024303868    1.97746782085836   -0.53407230632526
C         1.94711389078349    2.52061566254109   -2.45431984109858
H         2.32718878207663    1.50180191472247   -2.43807561275038
H         1.94994366183280    2.91632439177280   -3.46577232575909
H         2.59895653152557    3.12891501356024   -1.83220067759799
C         0.03103670592492    3.97545800211889   -1.76919710615549
H        -0.87916402257815    4.04092985755183   -1.18111241692192
H         0.78802129413812    4.59314611545776   -1.29233552211589
H        -0.15538024381292    4.35926852132589   -2.76904624951494
B         1.61486429069591    0.61864905823812    1.85196751366894
O         2.94928245579242    0.88557952228936    1.67641705397176
C         3.30119171592034    2.09381804119682    2.36820982659636
C         4.69665054548310    1.96167556872996    2.97474859038342
H         4.78171972872812    1.05075925514075    3.55702736245819
H         5.43111073438683    1.92342144843937    2.17429348389471
H         4.91154247117862    2.82118051793752    3.60414757719831
C         3.29823014168272    3.21687516035427    1.32456556778095
H         3.55434304407325    4.17431682381386    1.76901294208158
H         4.02752466490288    2.97408824418438    0.55513870159621
H         2.31917862939258    3.26131233115942    0.85423332825421
C         2.13995112269954    2.23340300880409    3.40577146913719
O         1.08546911723323    1.47689575982467    2.79336542933383
C         1.66830646908348    3.66201087253646    3.66458576556499
H         1.25985689852188    4.10371386023388    2.76178154270854
H         0.88809952390937    3.64831192615095    4.42188102179291
H         2.49577988755013    4.26757431092561    4.02465136459363
C         2.46270602201867    1.54300339493196    4.73595867893127
H         2.75445042890000    0.51651850324995    4.53234335008321
H         3.24626621441540    2.06847973388899    5.27320678990712
H         1.56212947495016    1.52183460201074    5.34539600281466
B         2.27820000000022   -1.33089999999717    0.17410000000132
O         3.12596443176662   -2.29860963450490    0.66327186360343
C         4.39921857265695   -2.22252936709830    0.00751759625813
C         5.34473971996793   -1.50390522065977    0.97553774517312
H         4.91220511561439   -0.54280683498069    1.23694046458908
H         5.42135676305874   -2.09730221469757    1.88287872891043
H         6.33437016046246   -1.37852578393258    0.54737067004003
C         4.92062648369815   -3.63475705357501   -0.25825274034399
H         5.08925776203461   -4.13019116791657    0.69415917748767
H         5.85873612502050   -3.58966014999212   -0.80429081395368
H         4.20246604419013   -4.22269202862607   -0.81991578782432
C         4.07980557025574   -1.37925447899400   -1.27762328502667
O         2.82743018590791   -0.75915765968554   -0.95066179496190
C         5.10209191560714   -0.29046605982004   -1.60005730116098
H         6.08749366831692   -0.72464211008600   -1.74381022214520
H         4.80407647984791    0.21609556210185   -2.51465284463959
H         5.13177487904225    0.44239584464434   -0.80141604010357
C         3.84755861651409   -2.23885632535547   -2.52768775937386
H         3.08943900713994   -2.99146069804557   -2.32993818369888
H         3.48086153720758   -1.59770051753077   -3.32558376768562
H         4.76751097349338   -2.71638716425082   -2.85088336283901
H        -3.45051944160125   -3.68208990681202   -2.78660473959388
H        -5.03442624345164    1.80681832630915    1.11669631137256
C         0.23590000000111   -1.68140000000312    2.96030000000007
C        -1.07381543945067   -2.08064046415803    3.30185130252262
N         1.18404376995932   -1.54098939592269    3.87015196486114
C        -1.42410072129400   -2.24563866811932    4.62351812757863
H        -1.80941186262155   -2.26101069776767    2.53399279787173
C         0.83800787198461   -1.72251316756829    5.13406423362804
Cl       -3.05300428568894   -2.70293384587798    5.04977810186326
C        -0.46014916047589   -2.06639977304025    5.60972386979464
N         1.65411990116880   -1.63647995192720    6.21629241975131
C        -0.36186167675534   -2.17270961250680    7.02178296751125
C         0.93666328880390   -1.90998799871302    7.35658950116489
H         2.63716400956623   -1.42656666325960    6.17969622815996
H        -1.15972659224434   -2.42107962240810    7.69330080668753
C         1.59570349881869   -1.89891053957068    8.68853977202253
H         2.38474613253943   -2.64920986991060    8.72836529880976
H         0.86675086876508   -2.11715377616012    9.46301304962312
H         2.04171323276300   -0.92535908394750    8.88748235183616
