99
 energy: -139.564961696147 gnorm: 0.082701963172 xtb: 6.4.1 (1a32961)
N        -0.96510000000000   -2.11530000000000   -0.24090000000000
C        -2.24700000000000   -1.69840000000000   -0.36220000000000
C        -3.14040000000000   -2.36820000000000   -1.21200000000000
C        -2.70220000000000   -3.47560000000000   -1.93050000000000
C        -1.37780000000000   -3.89880000000000   -1.78760000000000
C        -0.54290000000000   -3.18670000000000   -0.93510000000000
H         0.49810000000000   -3.45630000000000   -0.78940000000000
H        -0.99570000000000   -4.76030000000000   -2.32770000000000
H        -4.16500000000000   -2.02890000000000   -1.31830000000000
C        -2.62130000000000   -0.50950000000000    0.44100000000000
N        -1.62600000000000    0.07330000000000    1.16020000000000
C        -1.89680000000000    1.15240000000000    1.91690000000000
C        -3.17230000000000    1.70330000000000    1.99650000000000
C        -4.20510000000000    1.11740000000000    1.26270000000000
C        -3.92610000000000    0.00250000000000    0.47820000000000
H        -4.71960000000000   -0.46420000000000   -0.09520000000000
H        -3.34630000000000    2.57510000000000    2.62070000000000
H        -1.04450000000000    1.57420000000000    2.43690000000000
Ir        0.42150000000000   -0.81650000000000    0.91330000000000
H         0.87260000000000   -2.23030000000000    1.54050000000000
B         0.50670000000000    0.41560000000000   -0.81540000000000
O         0.19500000000000   -0.04700000000000   -2.09150000000000
C         0.00650000000000    1.10040000000000   -2.95430000000000
C         0.49020000000000    0.74740000000000   -4.35780000000000
H         1.51610000000000    0.37380000000000   -4.33700000000000
H         0.44730000000000    1.62240000000000   -5.01670000000000
H        -0.14740000000000   -0.03390000000000   -4.78430000000000
C        -1.50120000000000    1.39560000000000   -2.96670000000000
H        -1.75370000000000    2.21460000000000   -3.64850000000000
H        -2.03200000000000    0.49450000000000   -3.28930000000000
H        -1.85170000000000    1.65210000000000   -1.96220000000000
C         0.84230000000000    2.20670000000000   -2.22040000000000
O         0.75200000000000    1.78260000000000   -0.83690000000000
C         2.32930000000000    2.18620000000000   -2.59900000000000
H         2.74130000000000    1.18500000000000   -2.45750000000000
H         2.48870000000000    2.51300000000000   -3.63180000000000
H         2.87200000000000    2.86270000000000   -1.93200000000000
C         0.28440000000000    3.62290000000000   -2.33660000000000
H        -0.72650000000000    3.69040000000000   -1.92910000000000
H         0.92130000000000    4.31480000000000   -1.77610000000000
H         0.26430000000000    3.94810000000000   -3.38320000000000
B         1.56300000000000    0.60960000000000    1.84840000000000
O         2.92780000000000    0.55230000000000    2.15020000000000
C         3.36330000000000    1.88660000000000    2.50260000000000
C         4.53140000000000    1.78590000000000    3.47740000000000
H         4.27910000000000    1.16090000000000    4.33690000000000
H         5.39390000000000    1.33790000000000    2.97340000000000
H         4.82390000000000    2.77870000000000    3.83820000000000
C         3.79700000000000    2.56850000000000    1.19670000000000
H         4.20020000000000    3.57090000000000    1.37680000000000
H         4.56740000000000    1.95560000000000    0.72110000000000
H         2.95240000000000    2.63260000000000    0.50540000000000
C         2.05040000000000    2.50090000000000    3.09320000000000
O         1.03750000000000    1.81620000000000    2.31910000000000
C         1.89100000000000    4.00450000000000    2.88649999999999
H         1.87290000000000    4.25440000000000    1.82410000000000
H         0.94940000000000    4.34260000000000    3.33170000000000
H         2.71080000000000    4.55150000000000    3.36630000000000
C         1.82470000000000    2.13200000000000    4.56520000000000
H         1.92610000000000    1.05330000000000    4.71320000000000
H         2.52610000000000    2.65280000000000    5.22540000000000
H         0.80630000000000    2.41580000000000    4.84900000000000
B         2.27820000000000   -1.33090000000000    0.17410000000000
O         2.89460000000000   -2.57740000000000    0.38450000000000
C         4.26930000000000   -2.48200000000000   -0.07210000000000
C         5.10900000000000   -2.05380000000000    1.14010000000000
H         4.76350000000000   -1.08740000000000    1.51750000000000
H         4.98050000000000   -2.79470000000000    1.93590000000000
H         6.17420000000000   -1.99290000000000    0.89300000000000
C         4.71950000000000   -3.84660000000000   -0.58470000000000
H         4.75280000000000   -4.56130000000000    0.24420000000000
H         5.72330000000000   -3.78370000000000   -1.02010000000000
H         4.03500000000000   -4.23600000000000   -1.34170000000000
C         4.16440000000000   -1.36220000000000   -1.16300000000000
O         3.08520000000000   -0.55030000000000   -0.65400000000000
C         5.40720000000000   -0.48870000000000   -1.31550000000000
H         6.27320000000000   -1.09010000000000   -1.61530000000000
H         5.23300000000000    0.26930000000000   -2.08590000000000
H         5.64270000000000    0.02650000000000   -0.38240000000000
C         3.71800000000000   -1.89830000000000   -2.53110000000000
H         2.82530000000000   -2.52160000000000   -2.42740000000000
H         3.46090000000000   -1.05250000000000   -3.17550000000000
H         4.50570000000000   -2.48290000000000   -3.01790000000000
H        -3.38500000000000   -4.00130000000000   -2.59310000000000
H        -5.21400000000000    1.52080000000000    1.29960000000000
C         0.23590000000000   -1.68140000000000    2.96030000000000
C        -0.94932497278261   -2.24583168182138    3.43497042910280
C         1.32832146810578   -1.75773292971942    3.86139056090412
C        -1.09237574756492   -2.71604515616667    4.73604456446624
H        -1.78357643264148   -2.38577360233143    2.75814187564898
C         1.14422057545081   -2.09518471834625    5.20237516723696
C         2.78941287471776   -1.67640864642815    3.52377280263386
C        -0.06106675917716   -2.59631632992050    5.65481298659103
H        -2.00291004300788   -3.22226956185460    5.03060025246852
H         2.00461446698085   -2.06504809761470    5.86290093542507
H         3.30324703612981   -2.54953850541862    3.93178186067883
H         3.25746393996211   -0.79703491241705    3.96513519639739
H         2.94408631824567   -1.64043503450478    2.45355813235783
H        -0.15018049556431   -2.95456141033676    6.67290110917122
99
 energy: -139.574784467375 gnorm: 0.054164323573 xtb: 6.4.1 (1a32961)
N        -0.96162254352121   -2.10315762430095   -0.24741389349515
C        -2.24042171627429   -1.69332979021501   -0.35989490813440
C        -3.13454014206660   -2.36499266628074   -1.20321084693193
C        -2.70369016980915   -3.46588104495957   -1.91963400240839
C        -1.38306023210997   -3.88421733892432   -1.78092952376140
C        -0.55351605613566   -3.16990523969211   -0.93854598413965
H         0.48076826769532   -3.44911858756095   -0.79020081418243
H        -1.00618902379746   -4.74372805269299   -2.31715596430216
H        -4.15544212077436   -2.03012629528281   -1.30713368005972
C        -2.61210098552109   -0.51741095251370    0.44138394278783
N        -1.61969656264964    0.06139717221434    1.15470445435652
C        -1.89768057191981    1.13442242041837    1.89996141855139
C        -3.16414309849170    1.68496179187057    1.98712505149748
C        -4.19607517397940    1.10066568315398    1.26071425985527
C        -3.91495299398500   -0.00598878724957    0.48050070988590
H        -4.70680056632602   -0.46887044834895   -0.08859284603715
H        -3.33897699495119    2.54888780797044    2.61334562660420
H        -1.05419799140013    1.55385561809487    2.42766523735022
Ir        0.42150000000000   -0.81650000000000    0.91330000000000
H         0.87260000000000   -2.23030000000000    1.54050000000001
B         0.49018631960924    0.42467852429054   -0.79035824527554
O         0.17509311956811   -0.03479822243815   -2.06321645883879
C         0.00748102023738    1.09690520577833   -2.94319399622664
C         0.48540726017085    0.74808501917002   -4.34895314071906
H         1.50487751432975    0.37239993210391   -4.32876423957667
H         0.43931927909521    1.62338180443134   -4.99771173659003
H        -0.15283242754917   -0.02855079033044   -4.76922710526893
C        -1.49738073411684    1.39766781091677   -2.96714524209560
H        -1.73859062157756    2.21074960873032   -3.65029665269490
H        -2.02723599779301    0.50014483932736   -3.28665119009130
H        -1.84351274101404    1.65163456742740   -1.96497598496729
C         0.82948774896572    2.20739095949324   -2.21289012791049
O         0.75372634115647    1.78100704449159   -0.83591738379472
C         2.31229259749894    2.19188116330415   -2.60070252453927
H         2.71754896286683    1.19293734276455   -2.45174974023915
H         2.46412085061721    2.51396310243155   -3.63028746160512
H         2.85458229656207    2.86635677191534   -1.93893180092359
C         0.27681844955270    3.62329100486040   -2.33847132593028
H        -0.72642452445598    3.69098982338957   -1.92558598562064
H         0.91588718077817    4.30717928182018   -1.78124966663334
H         0.25810053322137    3.93713488531672   -3.38231073962983
B         1.55794626527110    0.64154880708655    1.83406334910772
O         2.92531590026101    0.60987021264375    2.08126078666184
C         3.36156497698423    1.91472709025761    2.49561179342142
C         4.53112316927926    1.79929850624437    3.46819483840134
H         4.27858770763655    1.17134408615456    4.31901884284184
H         5.38534667411751    1.35131115008920    2.96203796244621
H         4.81985677981975    2.78486202385738    3.83153251178620
C         3.80197012287482    2.59867356292904    1.19980667452271
H         4.20577141083990    3.59223719932174    1.38392024592287
H         4.56336097538322    1.97947043592138    0.72729453988479
H         2.95301068884702    2.64666451913292    0.51925784056130
C         2.04897965218941    2.51514302361353    3.08726351970850
O         1.03247444184005    1.82454791127871    2.33434236118059
C         1.89020512951361    4.01636357083542    2.89151044162893
H         1.86475267400342    4.25909158826766    1.83294070542421
H         0.95264257598966    4.34321281253710    3.33897643676673
H         2.71216302087196    4.55052483922608    3.36742897449579
C         1.83226355157549    2.14225642896879    4.55896724847515
H         1.93158317745480    1.06627493437222    4.69494319747358
H         2.53387097040416    2.66092695229505    5.21020449714123
H         0.81829094578692    2.41861455052300    4.84696919800784
B         2.27820000000000   -1.33090000000000    0.17409999999998
O         2.90447003274521   -2.56380561219853    0.37822239688684
C         4.27033103596607   -2.48199760107790   -0.08633632264708
C         5.12535914043794   -2.05714360478551    1.11319657103023
H         4.78194524612868   -1.09262842873458    1.48343936902244
H         4.99610841749116   -2.78965698024316    1.90896104127437
H         6.18161158158424   -2.00231044797570    0.85702984989262
C         4.72332345464671   -3.84481414552617   -0.59475623438471
H         4.75294164435745   -4.54788362131773    0.23658094474100
H         5.72083438416615   -3.77399420020714   -1.02733126061807
H         4.03644823165859   -4.23267192054674   -1.34214526163998
C         4.16569747024466   -1.35690822511271   -1.16287503620901
O         3.07418869374269   -0.56203638270756   -0.66114488944511
C         5.40842635409426   -0.48787090802358   -1.32006112669872
H         6.26476702384826   -1.09277901209406   -1.61720778035188
H         5.22901468575662    0.26403529923378   -2.08731012946716
H         5.63678121244264    0.02571279980034   -0.39055617337773
C         3.72617232216060   -1.89624551165552   -2.53007500436121
H         2.83475524270767   -2.51264604575128   -2.42032451923285
H         3.46717178417696   -1.05480955517497   -3.17137071463833
H         4.51550075599048   -2.47313966142531   -3.00933190168092
H        -3.38292010901824   -3.99094267076209   -2.57782901236041
H        -5.20022837505638    1.50211277506542    1.30143392281103
C         0.23589999999994   -1.68139999999989    2.96029999999990
C        -0.96502899623833   -2.22495405067264    3.42517158089900
C         1.31808598654081   -1.76757886701328    3.87399238840654
C        -1.12577497573026   -2.69197736686952    4.72448460082098
H        -1.79775714437036   -2.35067706379220    2.74449319284452
C         1.11329076556736   -2.10340193163557    5.20990713497429
C         2.77809754854981   -1.69972614650693    3.53562877515973
C        -0.10013424082941   -2.58723601566998    5.64888468574855
H        -2.04488252912591   -3.18451302584274    5.01197119390307
H         1.96661926539468   -2.08335864643443    5.87745255127611
H         3.27968760285141   -2.57846053591072    3.94176868063738
H         3.25066505963400   -0.82543217061161    3.97620610987941
H         2.92899548371978   -1.66592691459599    2.47029425671631
H        -0.20310954148845   -2.94434111546958    6.66441152652755
99
 energy: -139.579515417188 gnorm: 0.043669322943 xtb: 6.4.1 (1a32961)
N        -0.95354569477887   -2.09778591998144   -0.25099848949021
C        -2.23083148478039   -1.69088740877398   -0.35671653076203
C        -3.12957918556958   -2.36213402128435   -1.19464584996175
C        -2.70659268783615   -3.45846190163290   -1.91288225830353
C        -1.38594531431918   -3.87550205927822   -1.77913618609249
C        -0.55782692478164   -3.16120427741226   -0.94194432233510
H         0.47478354223270   -3.44463611540486   -0.80124491353469
H        -1.01449874516340   -4.73356260166380   -2.31421355750399
H        -4.14922683173591   -2.02944712302427   -1.29041140412704
C        -2.59907948542059   -0.52552662440444    0.44102761612546
N        -1.60907610011106    0.04866929311480    1.15434309829868
C        -1.89416219673032    1.11502679599205    1.89488919043702
C        -3.15532972735533    1.66638743383533    1.98586164310139
C        -4.18808108062378    1.08277065013968    1.26089548739889
C        -3.90278025276194   -0.01666063855109    0.48107803083740
H        -4.69234371465438   -0.48044838502318   -0.08531290884069
H        -3.33059987846941    2.52590694373279    2.61183593437352
H        -1.05683448197034    1.53918162614416    2.42475919385695
Ir        0.42149999999999   -0.81650000000001    0.91330000000001
H         0.87260000000000   -2.23030000000000    1.54050000000001
B         0.48726432675792    0.43597920090520   -0.76727257555059
O         0.15208790804411   -0.02394524022789   -2.03339496075592
C        -0.00097307175644    1.09445061446953   -2.92352766712595
C         0.47904055419767    0.74325647293227   -4.32844796027249
H         1.49498320302630    0.36555148389590   -4.31149833644025
H         0.43023627401444    1.62209070439998   -4.96598975118414
H        -0.16259561363331   -0.02758791142341   -4.74651010658650
C        -1.50442445990786    1.40270354857314   -2.96395905538173
H        -1.72986933242702    2.21193260970432   -3.65116178284181
H        -2.03270387896959    0.50709953827476   -3.28358581051719
H        -1.85050812246968    1.65792094290417   -1.96468408010272
C         0.81641027656389    2.20811922580838   -2.20041325800585
O         0.75345629318167    1.78546234716379   -0.82916070483645
C         2.29628555059525    2.19902579141822   -2.59988980702044
H         2.69850596926962    1.20181459712904   -2.44461092198389
H         2.43451351634012    2.51476862985609   -3.62971411063384
H         2.83830857192467    2.87706571004995   -1.94584166594082
C         0.26113142325851    3.62255657402548   -2.33425343526243
H        -0.73728843416406    3.69452027061169   -1.91698854088386
H         0.90509352441723    4.30383341644374   -1.78539719534720
H         0.24263720373512    3.92106580491522   -3.37858746696648
B         1.55601671600343    0.65706443463859    1.83707788203050
O         2.92003497844719    0.63652922672829    2.04652278909656
C         3.35725308726178    1.92718914480012    2.48257320871136
C         4.52513694867955    1.80871301359099    3.45797407355306
H         4.27453736528318    1.18050658936868    4.30560931536806
H         5.37405234379870    1.36364152196903    2.94725689188171
H         4.80788373818459    2.79346090257787    3.81724116192420
C         3.80646940975758    2.64122930382946    1.20462009827477
H         4.20938682493511    3.63020074889633    1.39344482035377
H         4.56458721953149    2.02284019014064    0.73174996604877
H         2.95759812490039    2.68293763948555    0.52737013226173
C         2.04945435216949    2.52535429771450    3.08229899419174
O         1.03204351709644    1.82535959287076    2.35033381283485
C         1.88713714608393    4.02742485129363    2.89271876749902
H         1.85268490952252    4.27069505412982    1.83724470528484
H         0.95510433968052    4.34844676528986    3.34806221987366
H         2.71245683555392    4.55192786040131    3.36421191400569
C         1.84638304627596    2.15588794428818    4.55775127372350
H         1.94432627583848    1.08094424060083    4.68361810856708
H         2.55129093945855    2.67440913832184    5.19907363453158
H         0.83505510131221    2.42861947927227    4.84892538957028
B         2.27820000000001   -1.33090000000000    0.17409999999994
O         2.91465416960097   -2.55022854525229    0.38277123233748
C         4.26799774243668   -2.47721715536663   -0.09898680605119
C         5.14513087414088   -2.05752616635194    1.08631973508179
H         4.80919201521068   -1.09144997125149    1.45237264010158
H         5.02118759344672   -2.78467006629123    1.88348527743806
H         6.19272571472203   -2.01222397911657    0.80888621788849
C         4.71972155629459   -3.83968158462370   -0.61067985729062
H         4.75254144366492   -4.53407144544959    0.22344334982707
H         5.71220845493447   -3.76067692262555   -1.04334580813093
H         4.03124553985645   -4.23028201891784   -1.35083640998682
C         4.15977855785027   -1.35148340180459   -1.16899630994700
O         3.05961148729528   -0.57087466215033   -0.67178508453082
C         5.40206969283717   -0.48195307684335   -1.32527955769812
H         6.25033429349232   -1.09302505784236   -1.61849345402255
H         5.22180894475603    0.26367059866563   -2.09375763443005
H         5.62758004272423    0.03293744368399   -0.39914036598610
C         3.73147407416427   -1.89303632943409   -2.53892333633284
H         2.84238632484405   -2.50734363533391   -2.42465949576608
H         3.47297068647180   -1.05402079158616   -3.17939311620378
H         4.52637364133845   -2.46428552108256   -3.00687685747332
H        -3.38661054103045   -3.98371226586685   -2.56495096314964
H        -5.19040801154063    1.48011060337757    1.30590721779100
C         0.23589999999985   -1.68139999999974    2.96029999999975
C        -0.98822734287727   -2.19197227457624    3.40671233442431
C         1.30301434763971   -1.77850329102890    3.88741639503815
C        -1.18018242073673   -2.64991303260583    4.70443672894528
H        -1.81731806662784   -2.29327869530769    2.71717029981098
C         1.06971395024883   -2.11601579408338    5.21766152354533
C         2.76127361696479   -1.70503891323820    3.54316643656681
C        -0.16155766665931   -2.57071458394819    5.63859621302244
H        -2.11774114972194   -3.11368657722926    4.98165923161711
H         1.91180337363922   -2.11113627145735    5.89889373960276
H         3.25683752785553   -2.58930412986755    3.94403725804285
H         3.23539014815906   -0.83386948271439    3.98519922982746
H         2.90607006727411   -1.66586756356735    2.47848183161800
H        -0.28984674103877   -2.92244217679462    6.65284901148203
99
 energy: -139.582932856018 gnorm: 0.041405600650 xtb: 6.4.1 (1a32961)
N        -0.94139909437176   -2.09593611604003   -0.25950142360707
C        -2.22044620090733   -1.69112106483616   -0.35664183682387
C        -3.12576577815197   -2.36332408581686   -1.18828092556791
C        -2.70926588147452   -3.45831033899262   -1.90974838539342
C        -1.38575196212885   -3.87443446847654   -1.78427293819088
C        -0.55326807511935   -3.15844522554092   -0.95310754014679
H         0.47971863000630   -3.44554666938202   -0.82029316991452
H        -1.01892393215257   -4.73246265025562   -2.32056810462554
H        -4.14594507100157   -2.03028176401730   -1.27433475585194
C        -2.58639932931261   -0.53193246853981    0.44109642996097
N        -1.59641285905456    0.04238797672616    1.15471277204256
C        -1.88657963677488    1.10496073958612    1.89636936666301
C        -3.14806602613235    1.65322060278421    1.99136148283544
C        -4.18215828604893    1.06782556709399    1.26597079653455
C        -3.89265276583490   -0.02704311157789    0.48378738152589
H        -4.67962273837908   -0.49299295924933   -0.08384186210436
H        -3.32491252261928    2.50926285899337    2.61966670092861
H        -1.05371571559365    1.53171261093756    2.43151158699869
Ir        0.42149999999998   -0.81650000000002    0.91330000000001
H         0.87260000000000   -2.23030000000000    1.54050000000003
B         0.47503196890129    0.45150641863414   -0.74569525573699
O         0.12603005495576   -0.01410946982440   -2.00629056916345
C        -0.01551001425731    1.09440602882246   -2.90268982363372
C         0.47011834129465    0.73571532093781   -4.30487768827280
H         1.48423278978736    0.35426313929952   -4.28617353210853
H         0.42430395539087    1.61661090102475   -4.93859362956873
H        -0.17487706804037   -0.03172386742250   -4.72299197822340
C        -1.51818568187007    1.41043140114828   -2.95901960777292
H        -1.72891927017916    2.21776006489740   -3.65184819902702
H        -2.04628640603510    0.51586163065334   -3.28054102215810
H        -1.87065219481120    1.67061853784102   -1.96369952457449
C         0.80230919821154    2.21144534550379   -2.18553668760992
O         0.75148165461536    1.79574910197696   -0.81662435535487
C         2.27998539810422    2.20673348383164   -2.59761274987075
H         2.68489618786366    1.21173933532124   -2.43677231542680
H         2.40524854271869    2.51492222354701   -3.63063109553891
H         2.82316524097633    2.89251500868735   -1.95324031606300
C         0.24333019526789    3.62498687064150   -2.32665079225057
H        -0.75239293831146    3.70061240298072   -1.90443346404316
H         0.89173704286559    4.31005778579639   -1.78842923161130
H         0.22001947532451    3.90989025580545   -3.37403975487459
B         1.55645319586382    0.67556020031916    1.82809386593116
O         2.91955981445832    0.66695973640133    2.00917270855496
C         3.35305388184979    1.94729657272355    2.46842211521404
C         4.52138131281484    1.81849581139333    3.44424906307173
H         4.27098197651159    1.18613585268851    4.28820990520356
H         5.36879610958177    1.37675069735756    2.92907314022596
H         4.80145555037161    2.80250986643395    3.80603021897547
C         3.80841877212360    2.68547300583114    1.20350781188668
H         4.20592791097202    3.67151909239846    1.41256735916697
H         4.57271731466451    2.07804242250565    0.72633532354660
H         2.96317144927004    2.73532237047498    0.52284832923647
C         2.04491135949141    2.53593748604334    3.07922431194822
O         1.02605120968952    1.82731142929998    2.36312590638443
C         1.87833734064664    4.03941152716615    2.89278629919051
H         1.83341791059694    4.28716922395389    1.83889627040428
H         0.95162003488719    4.35763433191645    3.35993063940182
H         2.70918105215298    4.55917145895146    3.35850159513730
C         1.86018335355479    2.17022415201847    4.55963039147436
H         1.96005248041312    1.09541156752353    4.68160776302079
H         2.57145935446509    2.69085655612995    5.19073609643133
H         0.85122813210890    2.44213399821920    4.85863248067449
B         2.27820000000002   -1.33090000000001    0.17409999999990
O         2.92391928349991   -2.54067526157986    0.39185182016712
C         4.26552070563158   -2.47143585392992   -0.11041484524029
C         5.16556727414380   -2.05612931979965    1.06116552501859
H         4.84094319500856   -1.08736639155107    1.42953984225475
H         5.05002137759849   -2.78101392580671    1.86072671001109
H         6.20719191886422   -2.02007531390367    0.76089299188743
C         4.71183048459780   -3.83506704601385   -0.62866823416928
H         4.75196254408299   -4.52703715322281    0.20655612487713
H         5.70056075916161   -3.75148975572456   -1.06742666275077
H         4.01916197106145   -4.22752143994729   -1.36347058056231
C         4.15030948352014   -1.34587278177656   -1.17943722047858
O         3.04345472937109   -0.57531518775445   -0.68672501805966
C         5.39092869146569   -0.47173714920516   -1.33351223017057
H         6.23766580358790   -1.08649259752919   -1.62134246808231
H         5.21203491032401    0.26906102342188   -2.10622301986447
H         5.61385110954751    0.04705672592656   -0.40940597590430
C         3.73363664967630   -1.88983213434050   -2.55306981717554
H         2.84659418577966   -2.50653789091882   -2.44143710587893
H         3.47777930922805   -1.05201116756921   -3.19551109753955
H         4.53572339663306   -2.45760849317451   -3.01105497394657
H        -3.39308263045013   -3.98338119736230   -2.55704914098091
H        -5.18542511817259    1.46065125388584    1.31430678167884
C         0.23589999999973   -1.68139999999954    2.96029999999955
C        -1.01395650402025   -2.15166637578747    3.38297861615429
C         1.28471433834793   -1.79251580413262    3.90224316939429
C        -1.24449149186306   -2.59476392481060    4.67963994870601
H        -1.83532220503806   -2.22707150822090    2.67995913292030
C         1.01940429500356   -2.13096875467447    5.22627572389458
C         2.74429795885996   -1.71694024099067    3.56457375630555
C        -0.23461161396018   -2.54785746625332    5.62638132292815
H        -2.20638749658161   -3.01830274216776    4.94547143989840
H         1.84796297566295   -2.14711203875088    5.92464621852144
H         3.23849758977823   -2.60389621220592    3.96085281894224
H         3.21646704906951   -0.84709946587933    4.01058205496688
H         2.88962597986183   -1.67106432236339    2.49964495997199
H        -0.39445051010517   -2.89098142281646    6.63998170428733
99
 energy: -139.585980555677 gnorm: 0.039641109402 xtb: 6.4.1 (1a32961)
N        -0.92962828635632   -2.09836333187664   -0.26777456086111
C        -2.21096634682434   -1.69415282399940   -0.35802129342083
C        -3.12145502914316   -2.36757589075641   -1.18465586120785
C        -2.70953062809427   -3.46197999189818   -1.90964127996687
C        -1.38310212930109   -3.87643076725828   -1.79347357999525
C        -0.54500907932256   -3.15982175033499   -0.96681741461049
H         0.48994486930387   -3.44691485770867   -0.84395214084035
H        -1.01957969148139   -4.73431447596471   -2.33308250780263
H        -4.14285301332894   -2.03414549173154   -1.26133151025729
C        -2.57546721933689   -0.53681452039461    0.44100698961107
N        -1.58479182959947    0.03836273148320    1.15651330820713
C        -1.87850384199958    1.09830126852738    1.90304983264040
C        -3.14214449734436    1.64211459506479    2.00080733372078
C        -4.17651532927338    1.05610031059457    1.27324879985681
C        -3.88358172238903   -0.03445794365767    0.48637765464748
H        -4.66854716217806   -0.50280352868495   -0.08304359799392
H        -3.32092857402602    2.49495932310826    2.63338820205816
H        -1.04799458994691    1.52741870034038    2.44100991973308
Ir        0.42149999999997   -0.81650000000003    0.91330000000002
H         0.87260000000000   -2.23029999999999    1.54050000000004
B         0.46891656160149    0.46662266552615   -0.72763647109242
O         0.09833859119013   -0.00292122363677   -1.98139400303122
C        -0.03442414832473    1.09814684199822   -2.88232540626317
C         0.45768756163455    0.72735425858224   -4.28003045133266
H         1.46958923811081    0.33900083971106   -4.25293268072540
H         0.42145980418720    1.60612080012635   -4.91832264375459
H        -0.19024265105669   -0.03852997806352   -4.69788273053298
C        -1.53589329675399    1.42215170462183   -2.95319385211956
H        -1.73433653485579    2.22785646493496   -3.65223379313500
H        -2.06544715200253    0.52866547280120   -3.27667289329964
H        -1.89845370365222    1.68950058369264   -1.96282545524912
C         0.78745131052199    2.21893609087392   -2.17168678435906
O         0.74830881451666    1.80864293938723   -0.80311386978144
C         2.26303758703644    2.21732029472522   -2.59485241674231
H         2.67418527757110    1.22552865198337   -2.42723232352113
H         2.37767572195749    2.51582563123819   -3.63235817914362
H         2.80787278533708    2.91332964758882   -1.96191366232156
C         0.22352782857575    3.63109169930306   -2.31761733493800
H        -0.76947295573172    3.70870091649424   -1.88793918386073
H         0.87555011239115    4.32346232456706   -1.79172461321357
H         0.19022993051423    3.90585700563014   -3.36818818648700
B         1.55549795519271    0.68182472289718    1.83162160835768
O         2.92164651731612    0.69040134730422    1.98055504432480
C         3.35039840406143    1.96664174942166    2.45405850353923
C         4.52044721379587    1.82837698580431    3.42747477366937
H         4.27012203541229    1.18903087780558    4.26660243820787