      -----------------------------------------------------------      
     |                   =====================                   |     
     |                           x T B                           |     
     |                   =====================                   |     
     |                         S. Grimme                         |     
     |          Mulliken Center for Theoretical Chemistry        |     
     |                    University of Bonn                     |     
      -----------------------------------------------------------      

   * xtb version 6.4.0 (f63f532) compiled by 'knkr256@seskscpg008.prim.scp' on 2021-04-09

   xtb is free software: you can redistribute it and/or modify it under
   the terms of the GNU Lesser General Public License as published by
   the Free Software Foundation, either version 3 of the License, or
   (at your option) any later version.
   
   xtb is distributed in the hope that it will be useful,
   but WITHOUT ANY WARRANTY; without even the implied warranty of
   MERCHANTABILITY or FITNESS FOR A PARTICULAR PURPOSE.  See the
   GNU Lesser General Public License for more details.
   
   Cite this work as:
   * C. Bannwarth, E. Caldeweyher, S. Ehlert, A. Hansen, P. Pracht,
     J. Seibert, S. Spicher, S. Grimme, WIREs Comput. Mol. Sci., 2020, 11,
     e01493. DOI: 10.1002/wcms.1493
   
   for GFN2-xTB:
   * C. Bannwarth, S. Ehlert and S. Grimme., J. Chem. Theory Comput., 2019,
     15, 1652-1671. DOI: 10.1021/acs.jctc.8b01176
   for GFN1-xTB:
   * S. Grimme, C. Bannwarth, P. Shushkov, J. Chem. Theory Comput., 2017,
     13, 1989-2009. DOI: 10.1021/acs.jctc.7b00118
   for GFN0-xTB:
   * P. Pracht, E. Caldeweyher, S. Ehlert, S. Grimme, ChemRxiv, 2019, preprint.
     DOI: 10.26434/chemrxiv.8326202.v1
   for GFN-FF:
   * S. Spicher and S. Grimme, Angew. Chem. Int. Ed., 2020, 59, 15665-15673.
     DOI: 10.1002/anie.202004239
   
   for DFT-D4:
   * E. Caldeweyher, C. Bannwarth and S. Grimme, J. Chem. Phys., 2017,
     147, 034112. DOI: 10.1063/1.4993215
   * E. Caldeweyher, S. Ehlert, A. Hansen, H. Neugebauer, S. Spicher,
     C. Bannwarth and S. Grimme, J. Chem. Phys., 2019, 150, 154122.
     DOI: 10.1063/1.5090222
   * E. Caldeweyher, J.-M. Mewes, S. Ehlert and S. Grimme, Phys. Chem. Chem. Phys.
     2020, 22, 8499-8512. DOI: 10.1039/D0CP00502A
   
   for sTDA-xTB:
   * S. Grimme and C. Bannwarth, J. Chem. Phys., 2016, 145, 054103.
     DOI: 10.1063/1.4959605
   
   in the mass-spec context:
   * V. Asgeirsson, C. Bauer and S. Grimme, Chem. Sci., 2017, 8, 4879.
     DOI: 10.1039/c7sc00601b
   * J. Koopman and S. Grimme, ACS Omega 2019, 4, 12, 15120-15133.
     DOI: 10.1021/acsomega.9b02011
   
   for metadynamics refer to:
   * S. Grimme, J. Chem. Theory Comput., 2019, 155, 2847-2862
     DOI: 10.1021/acs.jctc.9b00143
   
   for SPH calculations refer to:
   * S. Spicher and S. Grimme, J. Chem. Theory Comput., 2021, 17, 1701-1714
     DOI: 10.1021/acs.jctc.0c01306
   
   with help from (in alphabetical order)
   P. Atkinson, C. Bannwarth, F. Bohle, G. Brandenburg, E. Caldeweyher
   M. Checinski, S. Dohm, S. Ehlert, S. Ehrlich, I. Gerasimov, J. Koopman
   C. Lavinge, S. Lehtola, F. März, M. Müller, F. Musil, H. Neugebauer
   J. Pisarek, P. Pracht, J. Seibert, P. Shushkov, S. Spicher, M. Stahn
   T. Strunk, J. Stückrath, T. Rose, and J. Unsleber
   
 * started run on 2021/10/08 at 07:26:46.762     

           -------------------------------------------------
          |                Calculation Setup                |
           -------------------------------------------------

          program call               : xtb xtbopt.xyz --sp --alpb thf -P 6
          hostname                   : seskscpg010.prim.scp
          coordinate file            : xtbopt.xyz
          omp threads                :                     6
          number of atoms            :                    96
          number of electrons        :                   252
          charge                     :                     0
          spin                       :                   0.0
          first test random number   :      0.17250802957601

   ID    Z sym.   atoms
    1    7 N      1, 11, 87, 88
    2    6 C      2-6, 10, 12-15, 23, 24, 28, 32, 34, 38, 44, 45, 49, 53, 55,
                  59, 65, 66, 70, 74, 76, 80, 86, 89-91
    3    1 H      7-9, 16-18, 20, 25-27, 29-31, 35-37, 39-41, 46-48, 50-52,
                  56-58, 60-62, 67-69, 71-73, 77-79, 81-85, 92-96
    4   77 Ir     19
    5    5 B      21, 42, 63
    6    8 O      22, 33, 43, 54, 64, 75

molecular fragmentation (1/2 indicates fragments):
111111111111111111111111111111111111111111111111111111111111111111111111
111111111111122222222222
# atoms in fragment 1/2:    85    11
 fragment masses (1/2) :      730.32       81.10
CMA distance (Bohr)    :   8.121
constraining FC (au)   :  0.0500

           -------------------------------------------------
          |                 G F N 2 - x T B                 |
           -------------------------------------------------

        Reference                      10.1021/acs.jctc.8b01176
      * Hamiltonian:
        H0-scaling (s, p, d)           1.850000    2.230000    2.230000
        zeta-weighting                 0.500000
      * Dispersion:
        s8                             2.700000
        a1                             0.520000
        a2                             5.000000
        s9                             5.000000
      * Repulsion:
        kExp                           1.500000    1.000000
        rExp                           1.000000
      * Coulomb:
        alpha                          2.000000
        third order                    shell-resolved
        anisotropic                    true
        a3                             3.000000
        a5                             4.000000
        cn-shift                       1.200000
        cn-exp                         4.000000
        max-rad                        5.000000

      * Solvation model:               ALPB
        Solvent                        thf
        Parameter file                 internal GFN2-xTB/ALPB
        Dielectric constant                7.6000E+00
        Reference state                gsolv [1 M gas/solution]
        Free energy shift                  5.3248E-03 Eh       3.3414E+00 kcal/mol
        Temperature                        2.9815E+02 K
        Density                            8.8300E-01 kg/L
        Solvent mass                       7.2106E+01 g/mol
        Interaction kernel             P16
        Born radius scaling (c1)           1.7311E+00
        Born radii integrator          GBOBC
        Born offset                        0.0000E+00 a0       0.0000E+00 AA
        H-bond correction              true
        Ion screening                  false
        Surface tension                    1.0000E-05 Eh       1.5569E+01 dyn/cm
        Grid points                               230 per atom
q/qsh data taken from xtbrestart
CAMM data taken from xtbrestart

          ...................................................
          :                      SETUP                      :
          :.................................................:
          :  # basis functions                 240          :
          :  # atomic orbitals                 239          :
          :  # shells                          143          :
          :  # electrons                       252          :
          :  max. iterations                   250          :
          :  Hamiltonian                  GFN2-xTB          :
          :  restarted?                       true          :
          :  GBSA solvation                   true          :
          :  PC potential                    false          :
          :  electronic temp.          300.0000000     K    :
          :  accuracy                    1.0000000          :
          :  -> integral cutoff          0.2500000E+02      :
          :  -> integral neglect         0.1000000E-07      :
          :  -> SCF convergence          0.1000000E-05 Eh   :
          :  -> wf. convergence          0.1000000E-03 e    :
          :  Broyden damping             0.4000000          :
          ...................................................

 iter      E             dE          RMSdq      gap      omega  full diag
   1   -139.7476244 -0.139748E+03  0.294E-05    0.81       0.0  T
   2   -139.7476244  0.317158E-09  0.639E-05    0.81     159.6  T
   3   -139.7476244 -0.361780E-09  0.157E-05    0.81     650.9  T

   *** convergence criteria satisfied after 3 iterations ***

         #    Occupation            Energy/Eh            Energy/eV
      -------------------------------------------------------------
         1        2.0000           -0.6735227             -18.3275
       ...           ...                  ...                  ...
       120        2.0000           -0.3497138              -9.5162
       121        2.0000           -0.3474259              -9.4539
       122        2.0000           -0.3274362              -8.9100
       123        2.0000           -0.3210406              -8.7360
       124        2.0000           -0.3158861              -8.5957
       125        2.0000           -0.3088342              -8.4038
       126        2.0000           -0.3078278              -8.3764 (HOMO)
       127        0.0000           -0.2778997              -7.5620 (LUMO)
       128                         -0.2496571              -6.7935
       129                         -0.2471279              -6.7247
       130                         -0.2066906              -5.6243
       131                         -0.1997562              -5.4356
       ...                                ...                  ...
       239                          3.8677824             105.2477
      -------------------------------------------------------------
                  HL-Gap            0.0299280 Eh            0.8144 eV
             Fermi-level           -0.2927223 Eh           -7.9654 eV

 SCC (total)                   0 d,  0 h,  0 min,  0.096 sec
 SCC setup                      ...        0 min,  0.003 sec (  2.786%)
 Dispersion                     ...        0 min,  0.002 sec (  2.053%)
 classical contributions        ...        0 min,  0.000 sec (  0.158%)
 integral evaluation            ...        0 min,  0.024 sec ( 24.493%)
 iterations                     ...        0 min,  0.032 sec ( 32.782%)
 molecular gradient             ...        0 min,  0.036 sec ( 37.079%)
 printout                       ...        0 min,  0.001 sec (  0.593%)

         :::::::::::::::::::::::::::::::::::::::::::::::::::::
         ::                     SUMMARY                     ::
         :::::::::::::::::::::::::::::::::::::::::::::::::::::
         :: total energy            -138.018306342301 Eh    ::
         :: total w/o Gsasa/hb      -137.980687659589 Eh    ::
         :: gradient norm              0.035652871149 Eh/a0 ::
         :: HOMO-LUMO gap              0.814383082761 eV    ::
         ::.................................................::
         :: SCC energy              -139.747624419549 Eh    ::
         :: -> isotropic ES            0.250118199349 Eh    ::
         :: -> anisotropic ES          0.016344990158 Eh    ::
         :: -> anisotropic XC          0.050437987526 Eh    ::
         :: -> dispersion             -0.132685332172 Eh    ::
         :: -> Gsolv                  -0.049907993336 Eh    ::
         ::    -> Gelec               -0.012289310623 Eh    ::
         ::    -> Gsasa               -0.040412008306 Eh    ::
         ::    -> Ghb                 -0.002531489851 Eh    ::
         ::    -> Gshift               0.005324815444 Eh    ::
         :: repulsion energy           1.721343910581 Eh    ::
         :: add. restraining           0.000000000000 Eh    ::
         :: total charge               0.000000000731 e     ::
         :::::::::::::::::::::::::::::::::::::::::::::::::::::

           -------------------------------------------------
          |                Property Printout                |
           -------------------------------------------------

    * Orbital Energies and Occupations

         #    Occupation            Energy/Eh            Energy/eV
      -------------------------------------------------------------
         1        2.0000           -0.6735227             -18.3275
       ...           ...                  ...                  ...
       114        2.0000           -0.3918450             -10.6626
       115        2.0000           -0.3886658             -10.5761
       116        2.0000           -0.3850124             -10.4767
       117        2.0000           -0.3800452             -10.3416
       118        2.0000           -0.3774808             -10.2718
       119        2.0000           -0.3667567              -9.9800
       120        2.0000           -0.3497138              -9.5162
       121        2.0000           -0.3474259              -9.4539
       122        2.0000           -0.3274362              -8.9100
       123        2.0000           -0.3210406              -8.7360
       124        2.0000           -0.3158861              -8.5957
       125        2.0000           -0.3088342              -8.4038
       126        2.0000           -0.3078278              -8.3764 (HOMO)
       127        0.0000           -0.2778997              -7.5620 (LUMO)
       128                         -0.2496571              -6.7935
       129                         -0.2471279              -6.7247
       130                         -0.2066906              -5.6243
       131                         -0.1997562              -5.4356
       132                         -0.1684046              -4.5825
       133                         -0.1508903              -4.1059
       134                         -0.1402626              -3.8167
       135                         -0.1274449              -3.4680
       136                         -0.1221707              -3.3244
       137                         -0.1077389              -2.9317
       ...                                ...                  ...
       239                          3.8677824             105.2477
      -------------------------------------------------------------
                  HL-Gap            0.0299280 Eh            0.8144 eV
             Fermi-level           -0.2927223 Eh           -7.9654 eV

     #   Z          covCN         q      C6AA      α(0)
     1   7 N        2.507    -0.131    23.891     7.259
     2   6 C        2.952     0.077    26.284     8.409
     3   6 C        2.918    -0.042    29.050     8.838
     4   6 C        2.924    -0.022    28.552     8.763
     5   6 C        2.915    -0.043    29.072     8.842
     6   6 C        2.891     0.049    26.907     8.504
     7   1 H        0.925     0.053     2.285     2.364
     8   1 H        0.926     0.056     2.243     2.342
     9   1 H        0.926     0.048     2.350     2.397
    10   6 C        2.951     0.070    26.424     8.431
    11   7 N        2.549    -0.128    23.802     7.245
    12   6 C        2.889     0.044    27.010     8.521
    13   6 C        2.915    -0.045    29.108     8.847
    14   6 C        2.922    -0.025    28.628     8.774
    15   6 C        2.918    -0.047    29.157     8.855
    16   1 H        0.926     0.049     2.338     2.391
    17   1 H        0.926     0.053     2.287     2.365
    18   1 H        0.926     0.076     2.025     2.225
    19  77 Ir       5.889    -0.164   389.145    36.480
    20   1 H        0.977     0.092     1.853     2.127
    21   5 B        2.630     0.402    16.040     6.766
    22   8 O        1.638    -0.407    20.996     6.185
    23   6 C        3.834     0.130    18.456     6.112
    24   6 C        3.755    -0.121    22.876     6.820
    25   1 H        0.925     0.053     2.280     2.361
    26   1 H        0.925     0.045     2.383     2.414
    27   1 H        0.925     0.051     2.308     2.376
    28   6 C        3.754    -0.110    22.667     6.789
    29   1 H        0.925     0.048     2.346     2.395
    30   1 H        0.925     0.043     2.415     2.430
    31   1 H        0.925     0.028     2.613     2.528
    32   6 C        3.841     0.131    18.434     6.108
    33   8 O        1.637    -0.405    20.950     6.178
    34   6 C        3.755    -0.122    22.895     6.823
    35   1 H        0.925     0.054     2.273     2.358
    36   1 H        0.925     0.045     2.379     2.412
    37   1 H        0.925     0.049     2.335     2.390
    38   6 C        3.754    -0.120    22.863     6.818
    39   1 H        0.925     0.047     2.359     2.402
    40   1 H        0.925     0.053     2.281     2.362
    41   1 H        0.925     0.045     2.379     2.412
    42   5 B        2.641     0.413    15.853     6.717
    43   8 O        1.637    -0.376    20.396     6.096
    44   6 C        3.844     0.128    18.474     6.114
    45   6 C        3.754    -0.127    22.993     6.837
    46   1 H        0.925     0.060     2.200     2.320
    47   1 H        0.925     0.055     2.256     2.349
    48   1 H        0.925     0.049     2.330     2.387
    49   6 C        3.755    -0.121    22.885     6.821
    50   1 H        0.925     0.049     2.333     2.388
    51   1 H        0.925     0.047     2.362     2.403
    52   1 H        0.925     0.051     2.305     2.374
    53   6 C        3.842     0.128    18.484     6.116
    54   8 O        1.638    -0.377    20.420     6.100
    55   6 C        3.754    -0.125    22.948     6.831
    56   1 H        0.925     0.054     2.269     2.356
    57   1 H        0.925     0.054     2.266     2.354
    58   1 H        0.925     0.049     2.337     2.391
    59   6 C        3.754    -0.126    22.968     6.834
    60   1 H        0.925     0.057     2.235     2.338
    61   1 H        0.925     0.050     2.315     2.379
    62   1 H        0.925     0.047     2.352     2.398
    63   5 B        2.628     0.405    16.006     6.761
    64   8 O        1.638    -0.379    20.454     6.105
    65   6 C        3.833     0.125    18.525     6.124
    66   6 C        3.755    -0.132    23.095     6.852
    67   1 H        0.925     0.061     2.190     2.314
    68   1 H        0.925     0.055     2.258     2.350
    69   1 H        0.925     0.050     2.320     2.382
    70   6 C        3.755    -0.129    23.034     6.843
    71   1 H        0.925     0.060     2.195     2.317
    72   1 H        0.925     0.050     2.314     2.379
    73   1 H        0.925     0.052     2.294     2.369
    74   6 C        3.830     0.127    18.491     6.118
    75   8 O        1.637    -0.380    20.472     6.107
    76   6 C        3.755    -0.124    22.937     6.829
    77   1 H        0.925     0.051     2.309     2.376
    78   1 H        0.925     0.054     2.272     2.357
    79   1 H        0.925     0.056     2.252     2.347
    80   6 C        3.755    -0.122    22.888     6.822
    81   1 H        0.925     0.041     2.441     2.443
    82   1 H        0.925     0.048     2.341     2.393
    83   1 H        0.925     0.055     2.259     2.350
    84   1 H        0.926     0.053     2.278     2.360
    85   1 H        0.926     0.051     2.308     2.376
    86   6 C        3.020     0.067    26.476     8.440
    87   7 N        2.860    -0.022    21.674     6.914
    88   7 N        1.919    -0.307    28.792     7.956
    89   6 C        3.689    -0.053    21.717     6.670
    90   6 C        3.019    -0.041    28.991     8.832
    91   6 C        3.122     0.009    27.637     8.609
    92   1 H        0.925     0.069     2.099     2.266
    93   1 H        0.924     0.049     2.338     2.391
    94   1 H        0.924     0.066     2.131     2.283
    95   1 H        0.926     0.024     2.679     2.559
    96   1 H        0.926     0.013     2.839     2.635

 Mol. C6AA /au·bohr⁶  :      96350.092436
 Mol. C8AA /au·bohr⁸  :    2556650.191312
 Mol. α(0) /au        :        479.550219


Wiberg/Mayer (AO) data.
largest (>0.10) Wiberg bond orders for each atom

 ---------------------------------------------------------------------------
     #   Z sym  total        # sym  WBO       # sym  WBO       # sym  WBO
 ---------------------------------------------------------------------------
     1   7 N    3.381 --     6 C    1.388     2 C    1.307    19 Ir   0.424
     2   6 C    3.979 --     3 C    1.352     1 N    1.307    10 C    1.090
     3   6 C    3.988 --     4 C    1.480     2 C    1.352     9 H    0.962
                             6 C    0.105
     4   6 C    3.984 --     3 C    1.480     5 C    1.384    84 H    0.969
     5   6 C    3.980 --     6 C    1.458     4 C    1.384     8 H    0.968
     6   6 C    3.978 --     5 C    1.458     1 N    1.388     7 H    0.957
                             3 C    0.105
     7   1 H    0.997 --     6 C    0.957
     8   1 H    0.996 --     5 C    0.968
     9   1 H    0.997 --     3 C    0.962
    10   6 C    3.979 --    15 C    1.357    11 N    1.301     2 C    1.090
    11   7 N    3.409 --    12 C    1.388    10 C    1.301    19 Ir   0.446
    12   6 C    3.973 --    13 C    1.455    11 N    1.388    18 H    0.949
                            15 C    0.104
    13   6 C    3.982 --    12 C    1.455    14 C    1.387    17 H    0.969
    14   6 C    3.982 --    15 C    1.475    13 C    1.387    85 H    0.969
    15   6 C    3.989 --    14 C    1.475    10 C    1.357    16 H    0.962
                            12 C    0.104
    16   1 H    0.997 --    15 C    0.962
    17   1 H    0.997 --    13 C    0.969
    18   1 H    0.994 --    12 C    0.949
    19  77 Ir   5.197 --    63 B    0.855    42 B    0.850    21 B    0.741
                            86 C    0.585    20 H    0.549    11 N    0.446
                             1 N    0.424
    20   1 H    0.989 --    19 Ir   0.549    86 C    0.335
    21   5 B    3.275 --    33 O    1.112    22 O    1.092    19 Ir   0.741
    22   8 O    2.193 --    21 B    1.092    23 C    0.943
    23   6 C    3.943 --    24 C    0.996    28 C    0.990    22 O    0.943
                            32 C    0.941
    24   6 C    3.994 --    23 C    0.996    26 H    0.984    27 H    0.983
                            25 H    0.983
    25   1 H    0.997 --    24 C    0.983
    26   1 H    0.997 --    24 C    0.984
    27   1 H    0.997 --    24 C    0.983
    28   6 C    3.997 --    23 C    0.990    31 H    0.985    29 H    0.984
                            30 H    0.984
    29   1 H    0.997 --    28 C    0.984
    30   1 H    0.998 --    28 C    0.984
    31   1 H    0.999 --    28 C    0.985
    32   6 C    3.940 --    38 C    0.997    34 C    0.991    23 C    0.941
                            33 O    0.939
    33   8 O    2.200 --    21 B    1.112    32 C    0.939
    34   6 C    3.994 --    32 C    0.991    36 H    0.984    37 H    0.982
                            35 H    0.980
    35   1 H    0.997 --    34 C    0.980
    36   1 H    0.997 --    34 C    0.984
    37   1 H    0.997 --    34 C    0.982
    38   6 C    3.994 --    32 C    0.997    41 H    0.984    39 H    0.983
                            40 H    0.983
    39   1 H    0.998 --    38 C    0.983
    40   1 H    0.997 --    38 C    0.983
    41   1 H    0.997 --    38 C    0.984
    42   5 B    3.342 --    43 O    1.129    54 O    1.114    19 Ir   0.850
    43   8 O    2.233 --    42 B    1.129    44 C    0.933
    44   6 C    3.935 --    45 C    0.997    49 C    0.990    53 C    0.940
                            43 O    0.933
    45   6 C    3.992 --    44 C    0.997    48 H    0.983    47 H    0.982
                            46 H    0.982
    46   1 H    0.996 --    45 C    0.982
    47   1 H    0.997 --    45 C    0.982
    48   1 H    0.996 --    45 C    0.983
    49   6 C    3.994 --    44 C    0.990    50 H    0.984    51 H    0.982
                            52 H    0.980
    50   1 H    0.997 --    49 C    0.984
    51   1 H    0.998 --    49 C    0.982
    52   1 H    0.997 --    49 C    0.980
    53   6 C    3.937 --    55 C    0.997    59 C    0.992    44 C    0.940
                            54 O    0.932
    54   8 O    2.230 --    42 B    1.114    53 C    0.932
    55   6 C    3.993 --    53 C    0.997    58 H    0.983    57 H    0.983
                            56 H    0.982
    56   1 H    0.997 --    55 C    0.982
    57   1 H    0.997 --    55 C    0.983
    58   1 H    0.996 --    55 C    0.983
    59   6 C    3.993 --    53 C    0.992    62 H    0.983    61 H    0.983
                            60 H    0.982
    60   1 H    0.997 --    59 C    0.982
    61   1 H    0.996 --    59 C    0.983
    62   1 H    0.997 --    59 C    0.983
    63   5 B    3.361 --    75 O    1.120    64 O    1.109    19 Ir   0.855
    64   8 O    2.228 --    63 B    1.109    65 C    0.937
    65   6 C    3.937 --    70 C    0.996    66 C    0.991    74 C    0.938
                            64 O    0.937
    66   6 C    3.992 --    65 C    0.991    69 H    0.983    68 H    0.982
                            67 H    0.978
    67   1 H    0.996 --    66 C    0.978
    68   1 H    0.997 --    66 C    0.982
    69   1 H    0.997 --    66 C    0.983
    70   6 C    3.992 --    65 C    0.996    72 H    0.984    73 H    0.982
                            71 H    0.982
    71   1 H    0.996 --    70 C    0.982
    72   1 H    0.996 --    70 C    0.984
    73   1 H    0.997 --    70 C    0.982
    74   6 C    3.935 --    76 C    0.996    80 C    0.991    65 C    0.938
                            75 O    0.935
    75   8 O    2.234 --    63 B    1.120    74 C    0.935
    76   6 C    3.993 --    74 C    0.996    77 H    0.983    78 H    0.982
                            79 H    0.981
    77   1 H    0.996 --    76 C    0.983
    78   1 H    0.997 --    76 C    0.982
    79   1 H    0.997 --    76 C    0.981
    80   6 C    3.995 --    74 C    0.991    81 H    0.984    83 H    0.983
                            82 H    0.983
    81   1 H    0.998 --    80 C    0.984
    82   1 H    0.997 --    80 C    0.983
    83   1 H    0.996 --    80 C    0.983
    84   1 H    0.996 --     4 C    0.969
    85   1 H    0.996 --    14 C    0.969
    86   6 C    3.902 --    88 N    1.480    87 N    1.226    19 Ir   0.585
                            20 H    0.335
    87   7 N    3.623 --    86 C    1.226    90 C    1.184    89 C    1.005
    88   7 N    3.031 --    86 C    1.480    91 C    1.289
    89   6 C    3.972 --    87 N    1.005    94 H    0.977    93 H    0.974
                            92 H    0.969
    90   6 C    3.933 --    91 C    1.575    87 N    1.184    95 H    0.970
    91   6 C    3.970 --    90 C    1.575    88 N    1.289    96 H    0.971
    92   1 H    0.995 --    89 C    0.969
    93   1 H    0.998 --    89 C    0.974
    94   1 H    0.996 --    89 C    0.977
    95   1 H    0.999 --    90 C    0.970
    96   1 H    0.999 --    91 C    0.971
 ---------------------------------------------------------------------------

Topologies differ in total number of bonds
Writing topology from bond orders to xtbtopo.mol

molecular dipole:
                 x           y           z       tot (Debye)
 q only:       -0.757      -0.044      -1.542
   full:       -2.213       0.045      -1.903       7.418
molecular quadrupole (traceless):
                xx          xy          yy          xz          yz          zz
 q only:       16.509       7.027       2.449      -5.618      11.677     -18.957
  q+dip:       15.837       8.661       1.925      -9.639      13.049     -17.762
   full:       14.214       9.877       3.081     -11.619      10.258     -17.295


           -------------------------------------------------
          | TOTAL ENERGY             -138.018306342301 Eh   |
          | GRADIENT NORM               0.035652871149 Eh/α |
          | HOMO-LUMO GAP               0.814383082761 eV   |
           -------------------------------------------------

------------------------------------------------------------------------
 * finished run on 2021/10/08 at 07:26:46.895     
------------------------------------------------------------------------
 total:
 * wall-time:     0 d,  0 h,  0 min,  0.134 sec
 *  cpu-time:     0 d,  0 h,  0 min,  0.780 sec
 * ratio c/w:     5.831 speedup
 SCF:
 * wall-time:     0 d,  0 h,  0 min,  0.098 sec
 *  cpu-time:     0 d,  0 h,  0 min,  0.584 sec
 * ratio c/w:     5.971 speedup

