96
 energy: -137.997049509000 gnorm: 0.076760698709 xtb: 6.4.0 (f63f532)
N        -0.96510000000000   -2.11530000000000   -0.24090000000000
C        -2.24700000000000   -1.69840000000000   -0.36220000000000
C        -3.14040000000000   -2.36820000000000   -1.21200000000000
C        -2.70220000000000   -3.47560000000000   -1.93050000000000
C        -1.37780000000000   -3.89880000000000   -1.78760000000000
C        -0.54290000000000   -3.18670000000000   -0.93510000000000
H         0.49810000000000   -3.45630000000000   -0.78940000000000
H        -0.99570000000000   -4.76030000000000   -2.32770000000000
H        -4.16500000000000   -2.02890000000000   -1.31830000000000
C        -2.62130000000000   -0.50950000000000    0.44100000000000
N        -1.62600000000000    0.07330000000000    1.16020000000000
C        -1.89680000000000    1.15240000000000    1.91690000000000
C        -3.17230000000000    1.70330000000000    1.99650000000000
C        -4.20510000000000    1.11740000000000    1.26270000000000
C        -3.92610000000000    0.00250000000000    0.47820000000000
H        -4.71960000000000   -0.46420000000000   -0.09520000000000
H        -3.34630000000000    2.57510000000000    2.62070000000000
H        -1.04450000000000    1.57420000000000    2.43690000000000
Ir        0.42150000000000   -0.81650000000000    0.91330000000000
H         0.87260000000000   -2.23030000000000    1.54050000000000
B         0.50670000000000    0.41560000000000   -0.81540000000000
O         0.19500000000000   -0.04700000000000   -2.09150000000000
C         0.00650000000000    1.10040000000000   -2.95430000000000
C         0.49020000000000    0.74740000000000   -4.35780000000000
H         1.51610000000000    0.37380000000000   -4.33700000000000
H         0.44730000000000    1.62240000000000   -5.01670000000000
H        -0.14740000000000   -0.03390000000000   -4.78430000000000
C        -1.50120000000000    1.39560000000000   -2.96670000000000
H        -1.75370000000000    2.21460000000000   -3.64850000000000
H        -2.03200000000000    0.49450000000000   -3.28930000000000
H        -1.85170000000000    1.65210000000000   -1.96220000000000
C         0.84230000000000    2.20670000000000   -2.22040000000000
O         0.75200000000000    1.78260000000000   -0.83690000000000
C         2.32930000000000    2.18620000000000   -2.59900000000000
H         2.74130000000000    1.18500000000000   -2.45750000000000
H         2.48870000000000    2.51300000000000   -3.63180000000000
H         2.87200000000000    2.86270000000000   -1.93200000000000
C         0.28440000000000    3.62290000000000   -2.33660000000000
H        -0.72650000000000    3.69040000000000   -1.92910000000000
H         0.92130000000000    4.31480000000000   -1.77610000000000
H         0.26430000000000    3.94810000000000   -3.38320000000000
B         1.56300000000000    0.60960000000000    1.84840000000000
O         2.92780000000000    0.55230000000000    2.15020000000000
C         3.36330000000000    1.88660000000000    2.50260000000000
C         4.53140000000000    1.78590000000000    3.47740000000000
H         4.27910000000000    1.16090000000000    4.33690000000000
H         5.39390000000000    1.33790000000000    2.97340000000000
H         4.82390000000000    2.77870000000000    3.83820000000000
C         3.79700000000000    2.56850000000000    1.19670000000000
H         4.20020000000000    3.57090000000000    1.37680000000000
H         4.56740000000000    1.95560000000000    0.72110000000000
H         2.95240000000000    2.63260000000000    0.50540000000000
C         2.05040000000000    2.50090000000000    3.09320000000000
O         1.03750000000000    1.81620000000000    2.31910000000000
C         1.89100000000000    4.00450000000000    2.88650000000000
H         1.87290000000000    4.25440000000000    1.82410000000000
H         0.94940000000000    4.34260000000000    3.33170000000000
H         2.71080000000000    4.55150000000000    3.36630000000000
C         1.82470000000000    2.13200000000000    4.56520000000000
H         1.92610000000000    1.05330000000000    4.71320000000000
H         2.52610000000000    2.65280000000000    5.22540000000000
H         0.80630000000000    2.41580000000000    4.84900000000000
B         2.27820000000000   -1.33090000000000    0.17410000000000
O         2.89460000000000   -2.57740000000000    0.38450000000000
C         4.26930000000000   -2.48200000000000   -0.07210000000000
C         5.10900000000000   -2.05380000000000    1.14010000000000
H         4.76350000000000   -1.08740000000000    1.51750000000000
H         4.98050000000000   -2.79470000000000    1.93590000000000
H         6.17420000000000   -1.99290000000000    0.89300000000000
C         4.71950000000000   -3.84660000000000   -0.58470000000000
H         4.75280000000000   -4.56130000000000    0.24420000000000
H         5.72330000000000   -3.78370000000000   -1.02010000000000
H         4.03500000000000   -4.23600000000000   -1.34170000000000
C         4.16440000000000   -1.36220000000000   -1.16300000000000
O         3.08520000000000   -0.55030000000000   -0.65400000000000
C         5.40720000000000   -0.48870000000000   -1.31550000000000
H         6.27320000000000   -1.09010000000000   -1.61530000000000
H         5.23300000000000    0.26930000000000   -2.08590000000000
H         5.64270000000000    0.02650000000000   -0.38240000000000
C         3.71800000000000   -1.89830000000000   -2.53110000000000
H         2.82530000000000   -2.52160000000000   -2.42740000000000
H         3.46090000000000   -1.05250000000000   -3.17550000000000
H         4.50570000000000   -2.48290000000000   -3.01790000000000
H        -3.38500000000000   -4.00130000000000   -2.59310000000000
H        -5.21400000000000    1.52080000000000    1.29960000000000
C         0.23590000000000   -1.68140000000000    2.96030000000000
N        -0.95785006322334   -2.15003682198200    3.46509959136671
N         1.19197372246250   -1.89882324019057    3.84231076863415
C        -2.30161509438079   -2.13935671659753    2.94798264145827
C        -0.71579351202762   -2.62808249055558    4.72361137750385
C         0.62196738121288   -2.46915742732157    4.93890365844445
H        -2.31472154669343   -2.42572866086436    1.89813094853249
H        -2.76017422367005   -1.15383680285220    3.06271534307763
H        -2.90490665076865   -2.85705127465582    3.50515046635758
H        -1.50502217686048   -3.03453920723504    5.33061165345647
H         1.20612890148348   -2.76286609456187    5.79345505789870
96
 energy: -138.004905419767 gnorm: 0.048139412377 xtb: 6.4.0 (f63f532)
N        -0.96063137258848   -2.08763869001563   -0.27020110402981
C        -2.23662003035050   -1.66831430768838   -0.39630855107841
C        -3.13511415098366   -2.35406699080460   -1.22249157305283
C        -2.70594468626509   -3.46353858570729   -1.92697053445862
C        -1.38546067714098   -3.88211052389689   -1.78599541873885
C        -0.55455643759073   -3.16446953481449   -0.94788315865375
H         0.47761569716837   -3.44763607589241   -0.79144725618806
H        -1.00940997225258   -4.74542402952828   -2.31604298668631
H        -4.15710090972595   -2.02280929237623   -1.32245760475681
C        -2.60480555425672   -0.48047350479429    0.39134166300695
N        -1.61102726406977    0.09914962151070    1.10412494251481
C        -1.89315868737723    1.15540928451356    1.87222939622331
C        -3.16450197194171    1.69277689479918    1.97645338398821
C        -4.19665887848026    1.10915905442371    1.24922649655070
C        -3.91322322363975    0.01248704783439    0.45519591375254
H        -4.70789450528715   -0.45932451579319   -0.10170530973169
H        -3.34131893243842    2.54851676973643    2.61312780174055
H        -1.05213074573038    1.56419850753403    2.41315315483741
Ir        0.42150000000000   -0.81650000000001    0.91330000000000
H         0.87260000000000   -2.23030000000000    1.54050000000000
B         0.50325589765378    0.41887661888130   -0.79383438134245
O         0.17880554576818   -0.03684582690549   -2.06522054382825
C         0.01250593331983    1.09641874024623   -2.94416164614436
C         0.49118989495073    0.74776919585258   -4.34943107895181
H         1.51020127263821    0.37120385274831   -4.32803141727930
H         0.44639364746496    1.62347239624231   -4.99752463475194
H        -0.14742788607776   -0.02814757196653   -4.77019123484253
C        -1.49185673531110    1.39896198553617   -2.97004653766496
H        -1.73046584718882    2.21220923596470   -3.65378937776837
H        -2.02215339778077    0.50218698191597   -3.29052847756249
H        -1.83860695634243    1.65385730168453   -1.96846009476893
C         0.83424980677029    2.20589164750952   -2.21215453240644
O         0.75829332687405    1.77634643134025   -0.83554944285078
C         2.31679886775460    2.19056619750391   -2.59952832783563
H         2.72164510548308    1.19161963045869   -2.44994068097311
H         2.46861463111027    2.51271322921273   -3.62903942221075
H         2.85866861770742    2.86484774821011   -1.93737540154438
C         0.28209242911000    3.62205561521634   -2.33842594842355
H        -0.72145141142291    3.69113442928800   -1.92673382967301
H         0.92138279253373    4.30573750734814   -1.78139745635276
H         0.26484945514261    3.93528611831437   -3.38246916246650
B         1.56894349173527    0.60552021477816    1.87211161136900
O         2.93115606055696    0.56424218368808    2.13151791488630
C         3.36395601886075    1.88546329142934    2.50957063789171
C         4.53315157269089    1.78893588914677    3.48079411351536
H         4.27944165928961    1.15763040601446    4.32808525452462
H         5.38807310247466    1.34477542662867    2.97313026577125
H         4.81508066904587    2.77928012245945    3.83832861320146
C         3.79908176058858    2.57481437081453    1.21133277137854
H         4.20033786070808    3.57054662055387    1.39560759895511
H         4.56329302171583    1.96335757487547    0.73460679146482
H         2.95129512285073    2.62707364655748    0.52945844786064
C         2.05327507299471    2.50231204830420    3.09048312195574
O         1.04189479470190    1.80266958794338    2.33830243679273
C         1.89254222117012    4.00472932988983    2.88888716141330
H         1.86814660298260    4.24876959043060    1.83062460119059
H         0.95526196684852    4.33478846882102    3.33536189675892
H         2.71279639098798    4.54108750922476    3.36534370332545
C         1.83164431226320    2.13757681103048    4.56219473159857
H         1.93483298133931    1.06117278628847    4.69623544682964
H         2.53266935865137    2.65857353739658    5.21184918963633
H         0.81696354371852    2.41689619356179    4.84656544580670
B         2.27820000000001   -1.33090000000000    0.17410000000001
O         2.89673057118356   -2.56377924218464    0.38273010945817
C         4.26399448499432   -2.48373895054499   -0.07785183177072
C         5.10778251305374   -2.05950908775076    1.12850269415759
H         4.74989853711615   -1.10135099312494    1.50196912811403
H         4.97422459686238   -2.79330237615312    1.92192412583867
H         6.16616827452498   -1.99947250118680    0.87749111320340
C         4.71958361204801   -3.84572306555739   -0.58818992773789
H         4.74835554301890   -4.54955932139008    0.24230044138004
H         5.71809368012060   -3.77412262264668   -1.01873379917843
H         4.03508405369503   -4.23378546585805   -1.33781750612133
C         4.16602488579174   -1.36010833865571   -1.15773852321251
O         3.07280000762069   -0.56330047039657   -0.66304909167287
C         5.40940452815455   -0.49187933585412   -1.31463922697981
H         6.26564683678632   -1.09783078946583   -1.60986572616001
H         5.23183833085144    0.25967619886996   -2.08280273333503
H         5.63642572755347    0.02146746719592   -0.38482494602016
C         3.72942893914400   -1.89893266493799   -2.52639932874030
H         2.83749167515755   -2.51461043963989   -2.41790182011010
H         3.47236132635309   -1.05745868175703   -3.16847001363602
H         4.51949108412130   -2.47632598965789   -3.00363798437335
H        -3.38573269486197   -3.99267585790553   -2.58058221693924
H        -5.20273777588051    1.50373355132752    1.29960578669004
C         0.23590000000006   -1.68139999999998    2.96030000000001
N        -0.95227735418611   -2.15677310742170    3.47631718741632
N         1.19639892335763   -1.87851750138484    3.84536550974719
C        -2.29476220244561   -2.16143165987404    2.95991449929820
C        -0.69797745436206   -2.61861346058477    4.73925448329229
C         0.63602313635481   -2.44146287406721    4.94769885607985
H        -2.30364345395560   -2.45681866699486    1.91473018467166
H        -2.75889082588701   -1.17745117793665    3.06595169325304
H        -2.88918008078567   -2.87948966590515    3.52432516510550
H        -1.47810931896669   -3.02703706495970    5.35223214263170
H         1.22441416254041   -2.71851800219198    5.80215201725453
96
 energy: -138.007773935564 gnorm: 0.037394697522 xtb: 6.4.0 (f63f532)
N        -0.95447315643815   -2.07098978918313   -0.29011369113827
C        -2.22561100352096   -1.64527852807539   -0.42314315517747
C        -3.12837271369121   -2.33177267513613   -1.24287470526300
C        -2.71021282913517   -3.44691318667255   -1.93625436115680
C        -1.39111787969596   -3.86736152656489   -1.79466045855715
C        -0.56107400900861   -3.14871501588910   -0.96247922873860
H         0.46670926709369   -3.44131041199547   -0.80419757496957
H        -1.02263842789308   -4.73595604280907   -2.31465402109131
H        -4.14901539910779   -2.00231649256358   -1.33555255284966
C        -2.59002058933384   -0.46758232378439    0.36172301459922
N        -1.59883616104934    0.10450143327148    1.07912431391147
C        -1.88669324107751    1.15590691588307    1.84131845388238
C        -3.15418902254861    1.69081922570026    1.95290628084483
C        -4.18729943385864    1.10825274793076    1.22641709556597
C        -3.89858884808792    0.02325521615945    0.42620699200106
H        -4.69105297294629   -0.45012999490433   -0.12727381900707
H        -3.33436985225098    2.53220443676112    2.60239043053740
H        -1.05081776969877    1.56853512324345    2.38347585191214
Ir        0.42150000000001   -0.81650000000003    0.91330000000000
H         0.87260000000000   -2.23030000000000    1.54050000000000
B         0.51273265181518    0.42637994189102   -0.77341090246236
O         0.16492396568556   -0.02806364958516   -2.03733080721408
C         0.01219082551900    1.09324959187314   -2.92530659845146
C         0.49496803537708    0.74160349010141   -4.32881077817289
H         1.51011933804417    0.36163507376238   -4.30920356638610
H         0.44948074155339    1.62098755229939   -4.96586133174230
H        -0.14757630036902   -0.02778143423272   -4.74839096221420
C        -1.49057345352101    1.40461693215393   -2.96988880326201
H        -1.71049714333589    2.21445516570663   -3.65855210771174
H        -2.02028109858656    0.51072174776957   -3.29191098120285
H        -1.83947151739198    1.66232170757855   -1.97227861467731
C         0.83040062176460    2.20435918686911   -2.19878133680781
O         0.76856415945605    1.77712418861151   -0.82750672899565
C         2.30997698165637    2.19524327944051   -2.59737532528184
H         2.71204360213645    1.19800631219375   -2.44137380589496
H         2.44817838122643    2.51100975955613   -3.62727308258705
H         2.85133965011001    2.87333813020430   -1.94271201960773
C         0.27555648046991    3.61909437624658   -2.33274929984162
H        -0.72381236017698    3.69363384174219   -1.91801862068175
H         0.91976752573028    4.30082100883530   -1.78462993361834
H         0.25936960938524    3.91591250825657   -3.37786822631267
B         1.58100621601445    0.61031191710581    1.87311409900637
O         2.93386354459472    0.57545440118544    2.11572885487650
C         3.36495054728850    1.88584827484611    2.51241403453203
C         4.53094546468358    1.78770383872742    3.48788436822171
H         4.27876281448373    1.14891239726023    4.32663720628673
H         5.38402077324034    1.35216565307211    2.97602770690817
H         4.80138859004612    2.77694929352821    3.84580923196528
C         3.80511599995314    2.58816629826077    1.22281195287495
H         4.20233369898321    3.57970104765982    1.41592336063411
H         4.56822069378747    1.97947861358758    0.74602384726697
H         2.95567334058606    2.63435646200433    0.54592850046181
C         2.05434082251072    2.49736483096225    3.09234552885422
O         1.04523569297122    1.78791145883155    2.35515359378059
C         1.89270747044322    3.99968111190993    2.88931551623247
H         1.86075230442732    4.24258481815928    1.83341748783608
H         0.96028881799322    4.32492128877923    3.34202887017856
H         2.71611873351456    4.52723618997085    3.36155316956107
C         1.84409996027634    2.13971664832099    4.56801972597906
H         1.94928332876799    1.06447742956286    4.69255185825743
H         2.54737427729129    2.66312920996708    5.20730693479151
H         0.83177612412352    2.41623067296455    4.85403512040155
B         2.27820000000002   -1.33090000000001    0.17410000000001
O         2.89582585473946   -2.55223162401066    0.38686272393293
C         4.25465484321273   -2.48278228777844   -0.07992188092800
C         5.10574340567497   -2.06335928874151    1.12189615673062
H         4.74143823546188   -1.10919990172384    1.49307537967093
H         4.97115533205874   -2.79525351823665    1.91290896020687
H         6.15833610017724   -2.00450799486367    0.86289291780564
C         4.71108051972691   -3.84429368723885   -0.59234371401834
H         4.74078763314225   -4.54067225283762    0.24020269568795
H         5.70610285821908   -3.76301035957272   -1.01978592539084
H         4.02788919720643   -4.23429169075902   -1.33821345628178
C         4.16180230069660   -1.35963586295288   -1.15621278770629
O         3.06100310741242   -0.57235944021527   -0.67083546434321
C         5.40699243634488   -0.49365327708827   -1.30741936297440
H         6.25483880412696   -1.10738020438923   -1.59696769369897
H         5.23159715561698    0.25179414230721   -2.07772817866356
H         5.62966090249055    0.02033571630182   -0.37994948860427
C         3.74018415983359   -1.90131187652086   -2.52911402183902
H         2.84922641617756   -2.51383378302450   -2.41953334998164
H         3.48719425397306   -1.06161539829206   -3.17126269102134
H         4.53645904903612   -2.47431370594209   -2.99292682787350
H        -3.39392712647251   -3.98498744232240   -2.57370322680274
H        -5.19496528777214    1.48888517526873    1.29432331547355
C         0.23590000000013   -1.68139999999996    2.96030000000002
N        -0.94288317506002   -2.16572679898097    3.48965680401559
N         1.20331706230262   -1.84345450696609    3.84797058880187
C        -2.28144951428670   -2.18929534587458    2.96548617309870
C        -0.67453696943278   -2.59975285264979    4.76157597915274
C         0.65648386806720   -2.39368977236424    4.96143367574795
H        -2.28096254837965   -2.49204252390545    1.92201277033725
H        -2.75446380754212   -1.20775129595116    3.05868214846052
H        -2.86886667326837   -2.90772013569791    3.53649540201902
H        -1.44349272659377   -3.00965673576901    5.38578517179409
H         1.25239193774125   -2.63920335363897    5.82027924283738
96
 energy: -138.009309450827 gnorm: 0.036998980478 xtb: 6.4.0 (f63f532)
N        -0.94748990522724   -2.06155300054776   -0.30869542809714
C        -2.21645440112910   -1.62926349905943   -0.44596899551255
C        -3.12335533144463   -2.31342085076466   -1.26438808571263
C        -2.71441078958514   -3.43572583230220   -1.94983777807047
C        -1.39526094106050   -3.86044843480695   -1.80836963303793
C        -0.56160281650593   -3.14083006191887   -0.98058653350688
H         0.46455388302978   -3.44032966727404   -0.82337073254365
H        -1.03295767134390   -4.73422410870337   -2.32267441759615
H        -4.14094123602815   -1.97576699449769   -1.35907972526803
C        -2.57697854844798   -0.45425348886271    0.33564531329241
N        -1.58713312620496    0.11312438480328    1.05976066704022
C        -1.87843281752488    1.16420765731501    1.81953972534538
C        -3.14689380826316    1.69440032140229    1.93676995813431
C        -4.18089210903488    1.11119292381154    1.20886531872999
C        -3.88636311931614    0.03701060775100    0.39791570255451
H        -4.67508029004568   -0.43385702428310   -0.16245730352045
H        -3.32884552616878    2.53018182528914    2.59110664508091
H        -1.04490448927028    1.58175642638459    2.36180943024668
Ir        0.42150000000001   -0.81650000000005    0.91330000000000
H         0.87260000000000   -2.23030000000000    1.54050000000001
B         0.50449009438838    0.43902912544264   -0.75440645428098
O         0.14821228907271   -0.02064182969210   -2.01354037819731
C         0.00824760085413    1.09239476536704   -2.90723149375049
C         0.49805701414966    0.73238037567880   -4.30712258010662
H         1.51065412261312    0.34658883734001   -4.28302833140618
H         0.45877677556847    1.61299476435009   -4.94196996557382
H        -0.14819459719109   -0.03312615748234   -4.72744771824403
C        -1.49337814570195    1.41224932563846   -2.96876320873482
H        -1.69719877461506    2.22042432206834   -3.66348932769820
H        -2.02377864097037    0.52012943450109   -3.29355564604410
H        -1.85079548535990    1.67577969260535   -1.97598268585312
C         0.82735129942596    2.20555322060451   -2.18467992644057
O         0.77614666430786    1.78379686426288   -0.81522923926122
C         2.30496533313009    2.19968212260496   -2.59432186745316
H         2.70954828476670    1.20446548755745   -2.43296300863789
H         2.43208639064739    2.50812818456528   -3.62725278744696
H         2.84738913331364    2.88497171214676   -1.94846147999176
C         0.26973062702573    3.61961933031813   -2.32453223327507
H        -0.72741236399852    3.69743908422139   -1.90568792842097
H         0.91766838588765    4.30524658081539   -1.78617256560349
H         0.24898812438077    3.90375602784466   -3.37263600460771
B         1.58698744726798    0.60424460313556    1.88734095142818
O         2.93980543766558    0.58121643251104    2.10020963985030
C         3.36707151137399    1.88567935026801    2.51290001624375
C         4.53157061632333    1.78371046696110    3.49153681741952
H         4.28082801927045    1.13579005904407    4.32342201704892
H         5.38838230115439    1.35890447874661    2.97724000910611
H         4.79208035018712    2.77208389576604    3.85779348221833
C         3.81122131592170    2.60358435882731    1.23186322779498
H         4.20341920285776    3.59397626401744    1.43696474285058
H         4.57853889031641    2.00152783643982    0.75371548121509
H         2.96330151092939    2.65113365042459    0.55374069073548
C         2.05622969830121    2.49196949041915    3.09778624332164
O         1.04682663050485    1.77382590518188    2.37401798174351
C         1.88977234529797    3.99419060454861    2.89040241533523
H         1.84850738931077    4.23489277686453    1.83440735544330
H         0.96142938197171    4.31882343976301    3.35126456262961
H         2.71794662031887    4.52029954959459    3.35476818903538
C         1.85832142890130    2.14120287478453    4.57791060105292
H         1.96631485086331    1.06665108794758    4.70245014139680
H         2.56611922690611    2.66887667315447    5.20754186921662
H         0.84759680251948    2.41666998548076    4.86901847042545
B         2.27820000000003   -1.33090000000001    0.17410000000002
O         2.89429721090135   -2.54659242869642    0.39322764804662
C         4.24714787693397   -2.48286684474737   -0.08043344018739
C         5.10559243030591   -2.06607075499482    1.11802711621664
H         4.74104162538225   -1.11260752016237    1.49026115285905
H         4.97269668900630   -2.79910849153914    1.90787903361970
H         6.15570182067992   -2.00782850295165    0.85264055544890
C         4.70092088294683   -3.84569566330533   -0.59486667947681
H         4.73342836389204   -4.54014713719521    0.23868451871852
H         5.69422630192874   -3.76000622611955   -1.02394332404338
H         4.01654029867293   -4.23655747807529   -1.33881560942117
C         4.15718312027184   -1.35996125309900   -1.15684124738005
O         3.05164862401020   -0.57693194661523   -0.67981261573118
C         5.40357571365678   -0.49338747441927   -1.30045767221849
H         6.25003407724414   -1.11198477927364   -1.58210840345991
H         5.23390634740104    0.24878313065173   -2.07477605784118
H         5.62075760762923    0.02274442833501   -0.37318919513133
C         3.74981659125870   -1.90387780126153   -2.53434776344640
H         2.85918522853236   -2.51721135777748   -2.43094211226703
H         3.50332236973775   -1.06514800329382   -3.17990974975880
H         4.55320543500275   -2.47553027722175   -2.98606220100668
H        -3.40260888060569   -3.97700581417849   -2.57905114546443
H        -5.18991539199744    1.48510058771087    1.28312218046066
C         0.23590000000023   -1.68139999999994    2.96030000000003
N        -0.93104820127657   -2.17571599039339    3.50278105866325
N         1.21028657651521   -1.80252786134928    3.84923365421166
C        -2.26493726495841   -2.22439033979217    2.96902080833811
C        -0.65138795216715   -2.57335497058318    4.78612577686527
C         0.67657165966575   -2.33478599649497    4.97740708402857
H        -2.25023095644347   -2.53693912437523    1.92761641335530
H        -2.75073849672283   -1.24697013438537    3.04590047513386
H        -2.84684948533325   -2.94389434417469    3.54443191975827
H        -1.40939391695304   -2.98406478986108    5.42324226100744
H         1.28026773077595   -2.54351025544577    5.84231442345927
96
 energy: -138.010796331038 gnorm: 0.036982224707 xtb: 6.4.0 (f63f532)
N        -0.94105491158178   -2.05816502902632   -0.32488127489893
C        -2.20786411421184   -1.61755057128955   -0.46640091020579
C        -3.11673911131305   -2.29372812559139   -1.29094600984743
C        -2.71673706393216   -3.42292360065479   -1.96998847743094
C        -1.39903890053539   -3.85562060114981   -1.82612742428142
C        -0.56054046036751   -3.13773192057894   -1.00024720126833
H         0.46557234708846   -3.44144568123937   -0.84793808326629
H        -1.04260497813943   -4.73357880072914   -2.33789141292154
H        -4.12990405519190   -1.94294696009271   -1.39292742208458
C        -2.56549520911810   -0.44471011183115    0.31605857350713
N        -1.57746986761294    0.11638699019058    1.05088632035808
C        -1.86955913823218    1.17401875979186    1.80333319466434
C        -3.13857862270273    1.70328180211813    1.91854938535877
C        -4.17223181264231    1.12131761228639    1.18620508055247
C        -3.87330850765847    0.05478515054336    0.36758331538832
H        -4.65668394789847   -0.40784436382597   -0.20816546588876
H        -3.32183929062560    2.53653175972738    2.57537604673349
H        -1.03671420618636    1.59761059256525    2.34322842661221
Ir        0.42150000000002   -0.81650000000008    0.91329999999999
H         0.87260000000000   -2.23030000000000    1.54050000000001
B         0.51126501328508    0.45157963632721   -0.73587707251932
O         0.13062231711086   -0.01136937652568   -1.98728653383857
C         0.00169135527739    1.09364436654171   -2.88648415280990
C         0.49915519188357    0.71924912808139   -4.28100108803269
H         1.50823096242681    0.32364252776463   -4.24601690872690
H         0.47310383174801    1.59699553474268   -4.92137088622055
H        -0.15125566917933   -0.04340196697790   -4.70133602499585
C        -1.49819847856088    1.42332802382395   -2.96596540040228
H        -1.68689333524326    2.22935117740066   -3.66803132612412
H        -2.03049649834869    0.53288681324071   -3.29336854281133
H        -1.86800284745306    1.69528464295406   -1.97946774743610
C         0.82499921773472    2.21022239075083   -2.17024645459906
O         0.78641771543739    1.79359882836801   -0.80122362485839
C         2.30044854321712    2.20759433280638   -2.59136420593720
H         2.71106770424171    1.21562900046917   -2.42280656012273
H         2.41665317315661    2.50558104502848   -3.62896521606971
H         2.84450958515092    2.90321129445146   -1.95717470416089
C         0.26190905704112    3.62266607635898   -2.31432876001310
H        -0.73222235551547    3.70167625931854   -1.88737470324098
H         0.91337453331495    4.31555565675354   -1.78845107436902
H         0.23041011650995    3.89649845286955   -3.36549546583520
B         1.59542832411446    0.60448579932496    1.88374689170781
O         2.94793949213397    0.58984310310479    2.07795446613611
C         3.37225965510492    1.88824574585619    2.51096115518001
C         4.53479195544748    1.77716031341270    3.49280239069295
H         4.28557814389442    1.11493143740635    4.31472801834893
H         5.39821323926992    1.36732349881023    2.97586100365853
H         4.78575094548746    2.76262312612580    3.87585417524375
C         3.82134839556102    2.62519497665247    1.24112434515050
H         4.20592024933032    3.61560476070776    1.46293823891706
H         4.59693358425737    2.03435002167398    0.76103799980844
H         2.97797512860253    2.67782511792692    0.55733312226647
C         2.05994751216730    2.48580944998141    3.10539596607315
O         1.04814117952327    1.75959792127573    2.39542998008866
C         1.88364597945299    3.98726503633311    2.89311467094796
H         1.82784541617709    4.22362407604185    1.83611754004148
H         0.96025609050503    4.31177634033692    3.36539581357405
H         2.71735102303745    4.51800096344015    3.34393472244333