96
 energy: -138.018306342260 gnorm: 0.000455272245 xtb: 6.4.0 (f63f532)
N        -1.00247298575663   -2.00110957996958   -0.37746239346940
C        -2.20318323852006   -1.42604700633704   -0.58718624877463
C        -3.04710464461233   -1.87612167319357   -1.60930886545696
C        -2.64938552419226   -2.91988735378271   -2.41646303183190
C        -1.40567019099820   -3.50375211470120   -2.18871536159208
C        -0.62804964669519   -3.00631614728115   -1.16393636465673
H         0.34190235801617   -3.43030739177237   -0.94364016633217
H        -1.05508397989662   -4.32320980497026   -2.79475166028453
H        -4.00279151575546   -1.40804306694159   -1.77871866057163
C        -2.54775044006657   -0.32069119881136    0.29952251293125
N        -1.59486889345118    0.06679186873583    1.17632175860475
C        -1.86502401150238    1.06664905576549    2.01291049255309
C        -3.06865987063797    1.74246704056466    2.02814438335328
C        -4.05647693081602    1.36291712582190    1.12306652421648
C        -3.78975237965505    0.32384166837612    0.25689642025035
H        -4.54498454870575    0.01118261509114   -0.44482141180014
H        -3.23380768296417    2.54262836413457    2.73114241091566
H        -1.06441453407552    1.33188687745716    2.68647579847093
Ir        0.42150000000006   -0.81650000000054    0.91329999999977
H         0.87260000000000   -2.23029999999998    1.54050000000016
B         0.44628029148017    0.52934356204832   -0.67676080026544
O        -0.10222725310138    0.13127689404486   -1.88348698680393
C        -0.16232044217972    1.23786902161732   -2.78850352851458
C         0.21674990878974    0.76893257042782   -4.19107264252226
H         1.16220552219441    0.23731310790385   -4.17301688151109
H         0.28512292356950    1.61791815477543   -4.86637295912590
H        -0.54842463686850    0.08826964648228   -4.55697238524844
C        -1.61639005434940    1.73169487965251   -2.79619939251326
H        -1.75023268187185    2.55030463697862   -3.49703935011095
H        -2.26122369480138    0.90489255593778   -3.08767984866659
H        -1.90735284088393    2.05054615340481   -1.79725064872179
C         0.82560556349244    2.26163757494911   -2.13877676595892
O         0.85482654065653    1.83995611427914   -0.76735217310999
C         2.25451858848683    2.11597925144707   -2.67576092221557
H         2.58736213823467    1.09286351716802   -2.51930883442177
H         2.31381117865241    2.38494654290257   -3.72651838712274
H         2.91028300244015    2.76894188713836   -2.10490160609879
C         0.39206377238093    3.72333521422786   -2.22920850663284
H        -0.53758295420534    3.89401449581627   -1.69534744263907
H         1.15925697825593    4.35020638882450   -1.78130832848687
H         0.27032264036095    4.00929748757991   -3.27092115613708
B         1.61758484022796    0.64010967190337    1.80655315686345
O         2.98307391751073    0.75287125858684    1.79204202661489
C         3.36836856998596    2.03758464737623    2.30284245531772
C         4.63652942066031    1.90609798531702    3.14278268279117
H         4.52325257433332    1.12963953734573    3.89148278740932
H         5.46762625204004    1.63676618389557    2.49582170014367
H         4.86299150323473    2.85285002461112    3.62621614362936
C         3.64394744323203    2.92581593742240    1.08311946948687
H         3.94348105377277    3.92741081535985    1.37772089839656
H         4.44162879024836    2.47359741621847    0.49818581421700
H         2.75204472833567    2.95800461253595    0.46239753962150
C         2.09392755073042    2.48181736350841    3.09434476676552
O         1.05849891462645    1.70093748126611    2.48008647776082
C         1.75058944721572    3.96543061181505    2.97912374445492
H         1.51897335536167    4.22638790502806    1.95184554497957
H         0.87750014241235    4.17925511758814    3.59056591980100
H         2.58223376236141    4.56902086537000    3.33281346793177
C         2.14263965841323    2.07176527785276    4.57079728133424
H         2.30111381147214    0.99810679002404    4.63754840540127
H         2.92222109302684    2.60682358743989    5.10424919868920
H         1.18241420200728    2.29796572765658    5.02898933604634
B         2.27820000000047   -1.33090000000076    0.17410000000035
O         3.02960758643240   -2.37502404015240    0.67288399863177
C         4.34370307509502   -2.35900350078405    0.10245483214658
C         5.26271337386811   -1.70733648021505    1.14099588068868
H         4.86575416672655   -0.72882321560621    1.39536793609273
H         5.24789088403676   -2.31520491201730    2.04197625356959
H         6.28357891438623   -1.63025874719855    0.77950427263985
C         4.80523697094741   -3.79315078457229   -0.15630250825227
H         4.88752167639776   -4.30888291867136    0.79679330485302
H         5.77728179336623   -3.79146626257703   -0.64149338902556
H         4.09363240037908   -4.33411706039015   -0.77107470787246
C         4.14738534188325   -1.47886497941314   -1.18062184153521
O         2.93041126613631   -0.76884499840567   -0.89913121703508
C         5.26714157952542   -0.47457079065639   -1.44436320969915
H         6.21782831345629   -0.98983219770735   -1.55021984704542
H         5.05495764495191    0.06528446413452   -2.36385453518833
H         5.32526895697571    0.24338456782301   -0.63392545746538
C         3.90382995047188   -2.30873321104925   -2.44868194914053
H         3.08033234387400   -2.99966511758950   -2.29014247426029
H         3.62672413076427   -1.63670254905484   -3.25744326487448
H         4.79675525271453   -2.85640946126517   -2.73433153179345
H        -3.28988464875746   -3.27574174040065   -3.20920401739147
H        -5.01075149366428    1.86714275282860    1.09980399877274
C         0.23590000000132   -1.68140000000019    2.96030000000237
N        -0.88323199840146   -2.28652062356245    3.45360855986073
N         1.01354349742290   -1.28333044151946    3.94481270949352
C        -1.96239846415641   -2.89743780706211    2.73125110768414
C        -0.81197250247428   -2.21380896869990    4.82109435208801
C         0.36711925361947   -1.59064620842076    5.10090875957482
H        -1.64079459028298   -3.09824847419758    1.71144944796146
H        -2.83632382181990   -2.24010510003765    2.70495806793087
H        -2.24383763638361   -3.83491078015552    3.21339321787278
H        -1.58400989768608   -2.60597574367047    5.45222673925491
H         0.79188504636248   -1.34735695876098    6.05642500751272
