118
 energy: -173.580283146648 gnorm: 0.080268884084 xtb: 6.4.1 (1a32961)
N        -0.96510000000002   -2.11530000000000   -0.24090000000000
C        -2.24699999999999   -1.69840000000000   -0.36220000000000
C        -3.14040000000000   -2.36820000000000   -1.21200000000000
C        -2.70219999999999   -3.47560000000000   -1.93050000000000
C        -1.37780000000000   -3.89880000000000   -1.78760000000000
C        -0.54290000000000   -3.18670000000000   -0.93510000000000
H         0.49810000000000   -3.45630000000000   -0.78940000000000
H        -0.99570000000000   -4.76030000000000   -2.32770000000000
H        -4.16500000000000   -2.02890000000000   -1.31830000000000
C        -2.62130000000000   -0.50950000000000    0.44100000000000
N        -1.62599999999998    0.07330000000000    1.16020000000000
C        -1.89680000000006    1.15240000000000    1.91690000000000
C        -3.17229999999998    1.70330000000003    1.99650000000000
C        -4.20510000000000    1.11740000000000    1.26270000000000
C        -3.92610000000000    0.00249999999999    0.47820000000000
H        -4.71960000000000   -0.46420000000000   -0.09520000000000
H        -3.34630000000000    2.57510000000000    2.62070000000000
H        -1.04450000000002    1.57420000000000    2.43690000000000
Ir        0.42150000000000   -0.81650000000000    0.91330000000000
H         0.87260000000000   -2.23030000000000    1.54050000000000
B         0.50670000000000    0.41560000000000   -0.81540000000000
O         0.19500000000000   -0.04700000000000   -2.09150000000000
C         0.00650000000000    1.10040000000000   -2.95430000000000
C         0.49020000000000    0.74740000000000   -4.35780000000000
H         1.51609999999999    0.37380000000000   -4.33700000000000
H         0.44730000000000    1.62240000000000   -5.01670000000000
H        -0.14740000000000   -0.03390000000000   -4.78430000000000
C        -1.50120000000000    1.39560000000000   -2.96670000000000
H        -1.75370000000000    2.21460000000000   -3.64850000000000
H        -2.03200000000000    0.49450000000000   -3.28930000000000
H        -1.85170000000000    1.65210000000000   -1.96220000000000
C         0.84230000000000    2.20670000000002   -2.22040000000000
O         0.75200000000000    1.78260000000000   -0.83690000000000
C         2.32930000000000    2.18620000000000   -2.59900000000000
H         2.74130000000000    1.18500000000000   -2.45750000000000
H         2.48870000000000    2.51300000000000   -3.63180000000000
H         2.87200000000000    2.86270000000000   -1.93200000000000
C         0.28440000000000    3.62290000000000   -2.33660000000000
H        -0.72650000000000    3.69040000000000   -1.92910000000000
H         0.92130000000000    4.31480000000000   -1.77610000000000
H         0.26430000000000    3.94810000000000   -3.38320000000000
B         1.56300000000000    0.60960000000000    1.84840000000000
O         2.92780000000000    0.55230000000000    2.15020000000000
C         3.36329999999999    1.88660000000000    2.50260000000000
C         4.53140000000000    1.78590000000000    3.47740000000000
H         4.27910000000000    1.16090000000000    4.33690000000000
H         5.39390000000000    1.33790000000000    2.97340000000000
H         4.82390000000000    2.77870000000000    3.83820000000000
C         3.79700000000000    2.56850000000000    1.19670000000000
H         4.20020000000000    3.57090000000000    1.37680000000000
H         4.56740000000000    1.95560000000000    0.72110000000000
H         2.95240000000000    2.63260000000000    0.50540000000000
C         2.05040000000000    2.50090000000000    3.09320000000000
O         1.03750000000000    1.81620000000000    2.31910000000000
C         1.89100000000000    4.00450000000000    2.88650000000000
H         1.87290000000000    4.25440000000000    1.82410000000000
H         0.94940000000000    4.34260000000000    3.33170000000000
H         2.71080000000000    4.55150000000000    3.36630000000000
C         1.82470000000000    2.13200000000000    4.56519999999999
H         1.92610000000000    1.05330000000000    4.71320000000000
H         2.52610000000000    2.65280000000000    5.22540000000000
H         0.80630000000000    2.41580000000000    4.84900000000000
B         2.27820000000001   -1.33090000000000    0.17410000000000
O         2.89460000000000   -2.57740000000000    0.38450000000000
C         4.26930000000000   -2.48200000000000   -0.07210000000000
C         5.10900000000000   -2.05380000000000    1.14010000000000
H         4.76350000000000   -1.08740000000000    1.51750000000000
H         4.98050000000000   -2.79470000000000    1.93590000000000
H         6.17420000000000   -1.99289999999999    0.89300000000000
C         4.71950000000000   -3.84660000000001   -0.58470000000000
H         4.75280000000000   -4.56130000000000    0.24420000000000
H         5.72330000000000   -3.78370000000000   -1.02010000000000
H         4.03500000000000   -4.23600000000000   -1.34170000000000
C         4.16440000000000   -1.36220000000000   -1.16300000000000
O         3.08520000000000   -0.55030000000000   -0.65400000000000
C         5.40720000000000   -0.48870000000001   -1.31550000000000
H         6.27320000000000   -1.09009999999999   -1.61530000000000
H         5.23300000000000    0.26930000000000   -2.08590000000000
H         5.64270000000000    0.02650000000000   -0.38240000000000
C         3.71800000000000   -1.89830000000001   -2.53110000000000
H         2.82530000000000   -2.52160000000000   -2.42740000000000
H         3.46090000000000   -1.05249999999999   -3.17550000000000
H         4.50570000000000   -2.48290000000000   -3.01790000000000
H        -3.38500000000001   -4.00130000000000   -2.59310000000000
H        -5.21400000000000    1.52080000000000    1.29959999999999
C         0.23590000000000   -1.68140000000000    2.96029999999999
C        -0.99900441514594   -2.16786836373945    3.39963640145599
C         1.31565018472733   -1.67922744966464    3.85051494135037
C        -1.12929828368019   -2.61527926033197    4.71538859189929
H        -1.84338856475385   -2.22992236496614    2.72845698852441
C         1.20718597692570   -2.13264893677776    5.15177199307009
H         2.27997107966106   -1.34915483117534    3.48802689682689
N        -2.22681697938377   -3.19183314243632    5.38894634355156
C        -0.02375783233975   -2.63126450633008    5.58235822823550
H         2.06240129437481   -2.15002505336788    5.81417430958104
C        -3.55593777699596   -3.26853165612704    5.00709507014036
C        -1.77571286459614   -3.62435324781191    6.65073763094678
C        -0.42412945522577   -3.27794688742777    6.79541577167284
O        -4.42472502730119   -3.74026286951427    5.71027286661919
O        -3.78204047112005   -2.76459010459676    3.78345504294330
C        -2.44746548655445   -4.31517418325861    7.65634335309116
C         0.27495774615772   -3.62070231806655    7.95461663748496
C        -5.15687592025181   -2.72503986468117    3.34723422549907
C        -1.73492135300547   -4.64931974555487    8.80063417131567
H        -3.48700724532254   -4.58901834023952    7.55252655369982
C        -0.39610486950425   -4.31074015867164    8.95075610219661
H         1.31912935030925   -3.35963950447738    8.05949657604937
C        -5.70911844445249   -1.32431043334887    3.58962090459682
C        -5.18328746822270   -3.12089469855012    1.87731005737919
H        -5.71946631403897   -3.45200906621523    3.94631151182762
H        -2.24006045919993   -5.19285468953019    9.58889091947306
H         0.12818885828633   -4.59528585285667    9.85381680521277
H        -5.10893051078630   -0.59083059472875    3.05053222396854
H        -5.67893174825631   -1.09037194459161    4.65399176878597
H        -6.74181145072529   -1.27117022667702    3.24817962308902
H        -4.53550445779259   -2.45514511426771    1.30840030103186
H        -6.20256633523683   -3.05060038016918    1.50048063310852
H        -4.82798542456648   -4.14366404213338    1.75425868480892
118
 energy: -173.587137370721 gnorm: 0.047348655137 xtb: 6.4.1 (1a32961)
N        -0.96221108730536   -2.10078126332327   -0.25034606714783
C        -2.23960346370074   -1.68949194467087   -0.36492937356985
C        -3.13400730021416   -2.36006338337106   -1.20842671306080
C        -2.70399649720945   -3.46229689503648   -1.92306920818852
C        -1.38465602000015   -3.88218345955948   -1.78239276707366
C        -0.55470061721881   -3.16831239376591   -0.93968437578643
H         0.47896699681575   -3.44838038750838   -0.78998026608219
H        -1.00833352553680   -4.74239418435918   -2.31741077661192
H        -4.15416045825693   -2.02421370714873   -1.31480667311264
C        -2.61009254835088   -0.51142909659190    0.43417757396746
N        -1.61851712020733    0.06614352083551    1.14860674263797
C        -1.89660890212521    1.13730575998176    1.89553855597695
C        -3.16283316949251    1.68888302525207    1.98159141544608
C        -4.19352713269558    1.10788451048915    1.25147170808050
C        -3.91183199204814    0.00262866468730    0.46913478674687
H        -4.70344363055210   -0.45646812837981   -0.10317288670850
H        -3.33822244174873    2.55128946494264    2.60934638040430
H        -1.05350639384569    1.55512571606607    2.42471161661196
Ir        0.42150000000000   -0.81650000000000    0.91330000000000
H         0.87260000000000   -2.23030000000000    1.54050000000000
B         0.49109884446944    0.42445051753012   -0.79044039259293
O         0.17545323414779   -0.03501316408180   -2.06260363871566
C         0.01094403261704    1.09655653075582   -2.94376704684759
C         0.49011759809471    0.74671475616855   -4.34858556838389
H         1.50905598228367    0.36997545185043   -4.32715825934045
H         0.44546617837463    1.62202092553517   -4.99722934450871
H        -0.14863914839147   -0.02921241775582   -4.76905293090959
C        -1.49319726052290    1.39904094990408   -2.97019401803760
H        -1.73150460670717    2.21189665856686   -3.65446333130814
H        -2.02318310352835    0.50193321589678   -3.29017195146035
H        -1.83975105368536    1.65417205322763   -1.96861750620232
C         0.83272038422124    2.20662195095013   -2.21279908957214
O         0.75579614443116    1.78014925483487   -0.83553093063335
C         2.31528347991839    2.19014386038156   -2.60007532076130
H         2.71945691949003    1.19103037277341   -2.44997315094303
H         2.46710332066794    2.51147723958165   -3.62980185203358
H         2.85748759227346    2.86493752054169   -1.93871547998193
C         0.28129570948833    3.62275280747818   -2.34007464693520
H        -0.72203194386978    3.69188781161172   -1.92794317089662
H         0.92086537048645    4.30644124870018   -1.78340173066776
H         0.26382337644479    3.93523618343785   -3.38427037574530
B         1.56422836811157    0.62201153923977    1.84867960514645
O         2.92406365220007    0.56806623006952    2.13197199975661
C         3.36311804912312    1.88814378139416    2.50810781972473
C         4.53233564545958    1.78871797162869    3.47948026313684
H         4.27950704483877    1.16056986398316    4.32954744792025
H         5.38753528918673    1.34442145218227    2.97199356383043
H         4.81544569096857    2.77868806192440    3.83601131228345
C         3.79974779737084    2.57514509998034    1.21000814128987
H         4.20144031366831    3.57054220796138    1.39426986145044
H         4.56358988316751    1.96303776753089    0.73344861591904
H         2.95169641587560    2.62758663950943    0.52855385076303
C         2.05276298262401    2.50569843665242    3.08857292501323
O         1.03992607913612    1.81142203691625    2.33374427776348
C         1.89428505653140    4.00785542315050    2.88862901814288
H         1.86910669365950    4.25163206479411    1.83036374979668
H         0.95682558977441    4.33691124282614    3.33521425877998
H         2.71477324111112    4.54378471688717    3.36507638782392
C         1.83168243757487    2.14055570781106    4.56070582862192
H         1.93317071215280    1.06483736720333    4.69880872536227
H         2.53256785262758    2.66216697684527    5.21000601887139
H         0.81724570513763    2.41887665232442    4.84544808978424
B         2.27820000000001   -1.33090000000000    0.17410000000000
O         2.90062104336215   -2.56145960472822    0.39161462781381
C         4.26516844214233   -2.48371002782051   -0.07705623291751
C         5.10946395167200   -2.05882557223492    1.12885340238272
H         4.75361959556879   -1.09841184822778    1.49943148071708
H         4.97764739871087   -2.79406410917889    1.92183880370661
H         6.16718390391162   -1.99910830257617    0.87695715646193
C         4.71963839361418   -3.84597708316614   -0.58685119701325
H         4.74912706376037   -4.55035275787899    0.24316380139221
H         5.71741062965328   -3.77468691332559   -1.01904320607798
H         4.03405058432358   -4.23347002387353   -1.33566013888983
C         4.16616690789253   -1.36093554498379   -1.15758472350160
O         3.07387791241573   -0.56403798551227   -0.66208526526651
C         5.40945060223948   -0.49268629523315   -1.31520888406983
H         6.26561851798251   -1.09850325109689   -1.61082147356693
H         5.23124882828219    0.25831154232679   -2.08364272005252
H         5.63718032748783    0.02191484101664   -0.38622359776193
C         3.72907790625549   -1.90016668652061   -2.52565998662225
H         2.83695180667615   -2.51549256431171   -2.41708765811587
H         3.47199145336865   -1.05863712617485   -3.16757817544873
H         4.51902332050766   -2.47738753602186   -3.00331539047053
H        -3.38355659457484   -3.98728895842464   -2.58047982345261
H        -5.19742611098943    1.50981848385941    1.29128022980647
C         0.23590000000001   -1.68140000000000    2.96029999999999
C        -0.99875330906181   -2.16807585856646    3.40126835514719
C         1.31710994113194   -1.67930346276631    3.85517874524398
C        -1.12942142080087   -2.61349612131998    4.71253637561300
H        -1.84167005103090   -2.23038101336196    2.73107312078486
C         1.20507130643790   -2.13182722294218    5.15248567632426
H         2.27984759208441   -1.34936503737993    3.49457224297583
N        -2.22899421189679   -3.19038783509853    5.38714850918519
C        -0.02174815186498   -2.62852453800244    5.58050965386869
H         2.05768703316117   -2.14879358524682    5.81487804270844
C        -3.54850515108992   -3.26675920708231    5.00740110552024
C        -1.77796201217824   -3.62342214426515    6.65052843817153
C        -0.42359306606711   -3.27648396684257    6.79697658044808
O        -4.41612799950286   -3.73815102257947    5.70993603817064
O        -3.77651231081708   -2.76521926839417    3.78715343062056
C        -2.44626615502817   -4.31148964108107    7.65269749702693
C         0.27218885727930   -3.61735634313810    7.95242079711962
C        -5.15247778463526   -2.72630948475171    3.34893397037961
C        -1.73597138615257   -4.64480774291355    8.79585164501724
H        -3.48295175483135   -4.58538613081819    7.54961145657355
C        -0.39676404036376   -4.30563288033154    8.94677213293648
H         1.31410497760891   -3.35632706627703    8.05792042206745
C        -5.70714078798963   -1.32624527011083    3.58929156680329
C        -5.18013772062596   -3.12222605347017    1.87975456358563
H        -5.71582201719996   -3.45314946143522    3.94767831155382
H        -2.23998361373172   -5.18730571618290    9.58289277954611
H         0.12622033320097   -4.58908988297355    9.84893969184851
H        -5.10934019071493   -0.59386861793808    3.05081477271186
H        -5.67821062352389   -1.09127594793295    4.65155514156161
H        -6.73736575009101   -1.27453571768698    3.24814991195558
H        -4.53525993400010   -2.45811356880470    1.31098911959168
H        -6.19722589865834   -3.05281761135758    1.50415995067447
H        -4.82551306316595   -4.14278833297428    1.75619156690279
118
 energy: -173.588874763111 gnorm: 0.036755278950 xtb: 6.4.1 (1a32961)
N        -0.95545105210938   -2.09347265204206   -0.25817195868991
C        -2.22947263186287   -1.68068276518034   -0.37062607979832
C        -3.12892358477550   -2.34895717947883   -1.20982197014808
C        -2.70787870760422   -3.45020268022999   -1.92331454426261
C        -1.38978103924098   -3.87235768469212   -1.78441851020722
C        -0.56012100600048   -3.15965088535053   -0.94544613235766
H         0.47167017600513   -3.44491739307281   -0.80191311502157
H        -1.01950985462805   -4.73285018036240   -2.31684490693372
H        -4.14714093496068   -2.01294259474692   -1.31105598471482
C        -2.59531160857264   -0.51003443437672    0.42367346127815
N        -1.60759528327811    0.05907085575542    1.14372881919368
C        -1.89133624154552    1.12409047732932    1.88683558806408
C        -3.15226316968029    1.67931011662005    1.97277590628841
C        -4.18194703597980    1.10420251512050    1.23679085137726
C        -3.89589878043854    0.00682997367673    0.45209905816073
H        -4.68409235677094   -0.44702853643152   -0.12483116808489
H        -3.32862696799531    2.53605234249753    2.60253730747901
H        -1.05401264232245    1.54421045548012    2.42021581913328
Ir        0.42150000000000   -0.81650000000000    0.91330000000000
H         0.87260000000000   -2.23030000000000    1.54050000000000
B         0.49337045739273    0.43479294768948   -0.76875339825084
O         0.15524352004442   -0.02546040237805   -2.03324475767366
C         0.00648815874117    1.09370851526541   -2.92457675139897
C         0.49096258664082    0.73822815906335   -4.32648855724840
H         1.50612246982623    0.35758746843847   -4.30564205423038
H         0.44692632603397    1.61656028037911   -4.96554702464873
H        -0.15186161234505   -0.03146811791739   -4.74564912437670
C        -1.49575666302721    1.40625094015494   -2.97077716974086
H        -1.71521967225542    2.21536012642553   -3.66089480199354
H        -2.02525745679223    0.51163781716775   -3.29171012078232
H        -1.84488726126064    1.66513712846433   -1.97335125622512
C         0.82552882884824    2.20603006685139   -2.20052738387438
O         0.75960530651470    1.78418485780331   -0.82786930009161
C         2.30559416517297    2.19417068407034   -2.59778371382019
H         2.70676074514710    1.19663620557393   -2.44040741149955
H         2.44442081286805    2.50782655250415   -3.62853220820623
H         2.84773234355863    2.87372669100946   -1.94486713398898
C         0.27202846176338    3.62085501858828   -2.33738430997280
H        -0.72723396413036    3.69629154469130   -1.92197544733783
H         0.91690410951656    4.30325431440376   -1.79031725227282
H         0.25537295508628    3.91651140624883   -3.38306404897533
B         1.56506905668595    0.62873346992885    1.85721956774960
O         2.92206488283216    0.58016244385050    2.11689563940070
C         3.36173567395781    1.89031285102062    2.50840933894027
C         4.52873323011431    1.78836860848681    3.48297239144184
H         4.27818702460424    1.15556838898949    4.32729601891624
H         5.38167596683257    1.35103202573645    2.97138656189461
H         4.80245240697266    2.77757892057032    3.83849508282458
C         3.80409491938510    2.58930201119619    1.21896431818118
H         4.20292304799740    3.58051549972597    1.41162477995205
H         4.56703119807134    1.97954396054037    0.74260484511282
H         2.95496655625294    2.63671636275203    0.54158118264517
C         2.05366338166452    2.50701158517884    3.08854636996074
O         1.04204620983814    1.80634717970035    2.34679382544444
C         1.89723381928001    4.00915915113485    2.88707987786109
H         1.86443095836692    4.25168215926346    1.83090536706662
H         0.96482333511846    4.33466543263780    3.34003674283766
H         2.72142901985597    4.53608154695099    3.35917284861804
C         1.84208648561207    2.14980744309740    4.56472943694367
H         1.94564991132487    1.07561153526140    4.69733855278424
H         2.54551947712419    2.67506687865950    5.20283140148905
H         0.82970024229545    2.42532852098896    4.85070302602454
B         2.27820000000002   -1.33090000000000    0.17410000000001
O         2.90226156964919   -2.54927785582155    0.40109569007439
C         4.25765021335201   -2.48239307726307   -0.07678667071266
C         5.11273731172832   -2.06111712385470    1.12232926775079
H         4.75237489006798   -1.10322376966507    1.48934919433284
H         4.98111606641491   -2.79465430284029    1.91334251899005
H         6.16488422726000   -2.00301297945973    0.86168091465535
C         4.71048419153175   -3.84468439861634   -0.58901060035158
H         4.74217868653974   -4.54247118284432    0.24269504615204
H         5.70427268242915   -3.76469609197553   -1.02016222231609
H         4.02473989346141   -4.23379130639889   -1.33336228512601
C         4.16134619100491   -1.36189437712530   -1.15585592539081
O         3.06168675485115   -0.57388546766997   -0.67079401723219
C         5.40616627152432   -0.49544220312007   -1.30920333632185
H         6.25461457642282   -1.10879169580504   -1.59891800172150
H         5.22969991829676    0.24866179726765   -2.08083299567071
H         5.63046539347815    0.02157306509708   -0.38342446336344
C         3.73915647344120   -1.90506049980043   -2.52761653738178
H         2.84792271081594   -2.51749689519531   -2.41824278223150
H         3.48608200613806   -1.06539500363024   -3.17014207363386
H         4.53535359575449   -2.47820952976612   -2.99215389785842
H        -3.38926518709275   -3.97495816480507   -2.57446958106899
H        -5.18351342517818    1.50484255432563    1.27680177429148
C         0.23590000000002   -1.68140000000000    2.96029999999999
C        -0.99830540877739   -2.16887585522880    3.40207900846629
C         1.31800109517682   -1.67677766716283    3.85761202984594
C        -1.12911027760311   -2.61135631629471    4.71065044161411
H        -1.83997470198680   -2.23162137907026    2.73129001472537
C         1.20340409332556   -2.12838601934040    5.15350702400545
H         2.27913029648029   -1.34608616682674    3.49650901821848
N        -2.23059461594562   -3.18793702886131    5.38597642989987
C        -0.02092247174587   -2.62410561518752    5.57981352155457
H         2.05460106751608   -2.14439289394869    5.81667274064324
C        -3.54251240300617   -3.26451143489682    5.00697794705186
C        -1.77939391374323   -3.62085129606735    6.65067271920663
C        -0.42365916793245   -3.27240711262058    6.79844340244821
O        -4.41172031938860   -3.73620687503372    5.70884349881883
O        -3.77170674763650   -2.76460165844387    3.78855748172044
C        -2.44542869689351   -4.30730198407359    7.65072113982956
C         0.27008296584291   -3.61104490743532    7.95169540301100
C        -5.14838586409554   -2.72800573587630    3.34960855626228
C        -1.73663729107976   -4.63942827263800    8.79463724388638
H        -3.48077091913027   -4.58226374024667    7.54812943533504
C        -0.39764202829852   -4.29877724273730    8.94632325399495
H         1.31094380293380   -3.34914987267097    8.05762411064628
C        -5.70426592423773   -1.32832303717343    3.58876949326567
C        -5.17470383068350   -3.12515652789549    1.88126643651892
H        -5.70949472014139   -3.45520030982450    3.95012394910353
H        -2.23993079716649   -5.18127867169568    9.58101540249887
H         0.12412073444986   -4.58091507320048    9.84843969593975
H        -5.10790605966096   -0.59689986443989    3.04938967715053
H        -5.67565079878789   -1.09243188990789    4.65009359411168
H        -6.73346639858999   -1.27982650870273    3.24761467052802
H        -4.53250596556121   -2.46037630441324    1.31225869746373
H        -6.19149299947442   -3.05785833173999    1.50768985746386
H        -4.81864404686974   -4.14445846981504    1.75884337488934
118
 energy: -173.589464450185 gnorm: 0.036052058001 xtb: 6.4.1 (1a32961)
N        -0.94697893764071   -2.08971852810998   -0.26972084198351
C        -2.22063973898780   -1.67415488181718   -0.37951508708117
C        -3.12516194808020   -2.34134758355209   -1.21515109905407
C        -2.71073068801405   -3.44463771144239   -1.92812083710363
C        -1.39197550787108   -3.86952403467426   -1.79287676666106
C        -0.55810151869134   -3.15673514752811   -0.95787173553102
H         0.47286472102015   -3.44774523966488   -0.81746567144168
H        -1.02657572470318   -4.73202528752014   -2.32443568676355
H        -4.14260141697202   -2.00215859086416   -1.31242684502985
C        -2.58362134897433   -0.50593110303539    0.41378778502361
N        -1.59759352157922    0.05815175249880    1.14064742870911
C        -1.88409035549570    1.12092292470208    1.88487702011617
C        -3.14414262536780    1.67768371934118    1.96907190129218
C        -4.17260559272891    1.10763374343718    1.22487322270873
C        -3.88353403389357    0.01458811471588    0.43649153927032
H        -4.66804078178109   -0.43372764377833   -0.14966749118120
H        -3.32204685747249    2.53038170581583    2.60283250441273
H        -1.05068309018375    1.53900580707710    2.42659270468254
Ir        0.42150000000000   -0.81650000000000    0.91330000000000
H         0.87260000000000   -2.23030000000000    1.54050000000000
B         0.48071025545745    0.44840745669569   -0.75032279114460
O         0.13390031458164   -0.01717019564624   -2.01031591211483
C        -0.00191166047510    1.09388705818967   -2.90839714015246
C         0.48979417574645    0.72796226835132   -4.30589229027785
H         1.50238268177966    0.34127256989513   -4.27850733479041
H         0.45332784487342    1.60590391227694   -4.94538737775216
H        -0.15614299072591   -0.03888339068303   -4.72508658941369
C        -1.50279369494710    1.41516735507572   -2.97084735232308
H        -1.70745293158404    2.22227750396111   -3.66730902473685
H        -2.03357592016945    0.52217358485788   -3.29349348953823
H        -1.86007655270744    1.68069518751134   -1.97821401637760
C         0.81826639850039    2.20832673787030   -2.18853209105689
O         0.76031516790101    1.79303327055911   -0.81669123972604
C         2.29688041488641    2.19755322956735   -2.59438300736161
H         2.70003454607326    1.20192412581706   -2.43062161696018
H         2.42708006489403    2.50318236944504   -3.62828920177001
H         2.84017787929010    2.88419173237330   -1.95011055386161
C         0.26376210408515    3.62292648717813   -2.33292495520961
H        -0.73338721978866    3.70248011376202   -1.91361431663423
H         0.91236604869350    4.30940267394932   -1.79556904690432
H         0.24273169863927    3.90649977747743   -3.38164300603139
B         1.56645267735392    0.63538551649846    1.85544049177434
O         2.92279484988667    0.58874990167471    2.10291946989909
C         3.36194362043537    1.89327573999879    2.50732518334833
C         4.52742482723280    1.78626492406047    3.48464827176222
H         4.27718054700483    1.14713294145728    4.32410918077668
H         5.38247414780262    1.35551449425254    2.97123628188257
H         4.79539112133459    2.77457515377187    3.84628683710089
C         3.80920838649137    2.60382484847107    1.22490038897472
H         4.20463025908909    3.59380992390449    1.42800922818095
H         4.57554416969737    1.99905763046197    0.74775802663927
H         2.96208442349398    2.65379805234069    0.54557466418244
C         2.05415734204088    2.50803076787461    3.09039536606739
O         1.04103977655977    1.80287062142982    2.35816463854696
C         1.89660757550194    4.01063364789872    2.88693909140899
H         1.85606798058852    4.25201066070271    1.83081996009236
H         0.96843405636156    4.33753263125686    3.34729015929372
H         2.72604294760676    4.53495334861226    3.35213659170081
C         1.85222067302654    2.15737937434523    4.57048407325155
H         1.95857178501285    1.08399764343219    4.70551433832179
H         2.55926398853212    2.68734181821941    5.20002179198805
H         0.84121455955667    2.43259757354250    4.86079373045203
B         2.27820000000003   -1.33089999999999    0.17410000000002
O         2.90337564450203   -2.54323931863243    0.41096452953828
C         4.25289421301860   -2.48227573794142   -0.07553787789526
C         5.11731809138202   -2.06235217128837    1.11838089756488
H         4.75881715029259   -1.10430480402541    1.48637736153949
H         4.98881528944430   -2.79599623852163    1.90949856115183
H         6.16703849538286   -2.00574122480137    0.84997124187491
C         4.70123495723619   -3.84665018649195   -0.58872418337208
H         4.73617004179379   -4.54268523808746    0.24406276176132
H         5.69284547926398   -3.76474793372771   -1.02361929878428
H         4.01240685969686   -4.23619081511021   -1.32982255585367
C         4.15757171552684   -1.36350051831298   -1.15647789701475
O         3.05278308220456   -0.57944160408808   -0.68058962783220
C         5.40265422947827   -0.49562558509491   -1.30484924649837
H         6.25076024362531   -1.11268643932648   -1.58681914115091
H         5.23057774558349    0.24466750421307   -2.08090518344604
H         5.62187268613317    0.02475611868253   -0.37993012460562
C         3.74789217388953   -1.91041780071140   -2.53148100290153
H         2.85698737937263   -2.52378786577213   -2.42756311019676
H         3.50023103032889   -1.07212435542400   -3.17772045589154
H         4.55028070093126   -2.48265961921040   -2.98544262404955
H        -3.39577352696980   -3.96840406113511   -2.57585506017256
H        -5.17351695650111    1.50930532841601    1.26182721088315
C         0.23590000000003   -1.68140000000000    2.96029999999999
C        -0.99805166523760   -2.16927615581497    3.40229641300382
C         1.31806514551155   -1.67361429154386    3.85803273505392
C        -1.12846149205007   -2.60922291759366    4.71080026020926