96
 energy: -140.459192651738 gnorm: 0.078212819638 xtb: 6.4.0 (f63f532)
N        -0.96510000000000   -2.11530000000000   -0.24090000000000
C        -2.24700000000000   -1.69840000000000   -0.36220000000000
C        -3.14040000000000   -2.36820000000000   -1.21200000000000
C        -2.70220000000000   -3.47560000000000   -1.93050000000000
C        -1.37780000000000   -3.89880000000000   -1.78760000000000
C        -0.54290000000000   -3.18670000000000   -0.93510000000000
H         0.49810000000000   -3.45630000000000   -0.78940000000000
H        -0.99570000000000   -4.76030000000000   -2.32770000000000
H        -4.16500000000000   -2.02890000000000   -1.31830000000000
C        -2.62130000000000   -0.50950000000000    0.44100000000000
N        -1.62600000000000    0.07330000000000    1.16020000000000
C        -1.89680000000000    1.15240000000000    1.91690000000000
C        -3.17230000000000    1.70330000000000    1.99650000000000
C        -4.20510000000000    1.11740000000000    1.26270000000000
C        -3.92610000000000    0.00250000000000    0.47820000000000
H        -4.71960000000000   -0.46420000000000   -0.09520000000000
H        -3.34630000000000    2.57510000000000    2.62070000000000
H        -1.04450000000000    1.57420000000000    2.43690000000000
Ir        0.42150000000000   -0.81650000000000    0.91330000000000
H         0.87260000000000   -2.23030000000000    1.54050000000000
B         0.50670000000000    0.41560000000000   -0.81540000000000
O         0.19500000000000   -0.04700000000000   -2.09150000000000
C         0.00650000000000    1.10040000000000   -2.95430000000000
C         0.49020000000000    0.74740000000000   -4.35780000000000
H         1.51610000000000    0.37380000000000   -4.33700000000000
H         0.44730000000000    1.62240000000000   -5.01670000000000
H        -0.14740000000000   -0.03390000000000   -4.78430000000000
C        -1.50120000000000    1.39560000000000   -2.96670000000000
H        -1.75370000000000    2.21460000000000   -3.64850000000000
H        -2.03200000000000    0.49450000000000   -3.28930000000000
H        -1.85170000000000    1.65210000000000   -1.96220000000000
C         0.84230000000000    2.20670000000000   -2.22040000000000
O         0.75200000000000    1.78260000000000   -0.83690000000000
C         2.32930000000000    2.18620000000000   -2.59900000000000
H         2.74130000000000    1.18500000000000   -2.45750000000000
H         2.48870000000000    2.51300000000000   -3.63180000000000
H         2.87200000000000    2.86270000000000   -1.93200000000000
C         0.28440000000000    3.62290000000000   -2.33660000000000
H        -0.72650000000000    3.69040000000000   -1.92910000000000
H         0.92130000000000    4.31480000000000   -1.77610000000000
H         0.26430000000000    3.94810000000000   -3.38320000000000
B         1.56300000000000    0.60960000000000    1.84840000000000
O         2.92780000000000    0.55230000000000    2.15020000000000
C         3.36330000000000    1.88660000000000    2.50260000000000
C         4.53140000000000    1.78590000000000    3.47740000000000
H         4.27910000000000    1.16090000000000    4.33690000000000
H         5.39390000000000    1.33790000000000    2.97340000000000
H         4.82390000000000    2.77870000000000    3.83820000000000
C         3.79700000000000    2.56850000000000    1.19670000000000
H         4.20020000000000    3.57090000000000    1.37680000000000
H         4.56740000000000    1.95560000000000    0.72110000000000
H         2.95240000000000    2.63260000000000    0.50540000000000
C         2.05040000000000    2.50090000000000    3.09320000000000
O         1.03750000000000    1.81620000000000    2.31910000000000
C         1.89100000000000    4.00450000000000    2.88650000000000
H         1.87290000000000    4.25440000000000    1.82410000000000
H         0.94940000000000    4.34260000000000    3.33170000000000
H         2.71080000000000    4.55150000000000    3.36630000000000
C         1.82470000000000    2.13200000000000    4.56520000000000
H         1.92610000000000    1.05330000000000    4.71320000000000
H         2.52610000000000    2.65280000000000    5.22540000000000
H         0.80630000000000    2.41580000000000    4.84900000000000
B         2.27820000000000   -1.33090000000000    0.17410000000000
O         2.89460000000000   -2.57740000000000    0.38450000000000
C         4.26930000000000   -2.48200000000000   -0.07210000000000
C         5.10900000000000   -2.05380000000000    1.14010000000000
H         4.76350000000000   -1.08740000000000    1.51750000000000
H         4.98050000000000   -2.79470000000000    1.93590000000000
H         6.17420000000000   -1.99290000000000    0.89300000000000
C         4.71950000000000   -3.84660000000000   -0.58470000000000
H         4.75280000000000   -4.56130000000000    0.24420000000000
H         5.72330000000000   -3.78370000000000   -1.02010000000000
H         4.03500000000000   -4.23600000000000   -1.34170000000000
C         4.16440000000000   -1.36220000000000   -1.16300000000000
O         3.08520000000000   -0.55030000000000   -0.65400000000000
C         5.40720000000000   -0.48870000000000   -1.31550000000000
H         6.27320000000000   -1.09010000000000   -1.61530000000000
H         5.23300000000000    0.26930000000000   -2.08590000000000
H         5.64270000000000    0.02650000000000   -0.38240000000000
C         3.71800000000000   -1.89830000000000   -2.53110000000000
H         2.82530000000000   -2.52160000000000   -2.42740000000000
H         3.46090000000000   -1.05250000000000   -3.17550000000000
H         4.50570000000000   -2.48290000000000   -3.01790000000000
H        -3.38500000000000   -4.00130000000000   -2.59310000000000
H        -5.21400000000000    1.52080000000000    1.29960000000000
C         0.23590000000000   -1.68140000000000    2.96030000000000
C        -0.98378987709548   -2.14047857495293    3.46586419472957
C         1.31158231540561   -1.88784560764472    3.84485410117024
C        -1.12888301999302   -2.65424555766429    4.74996940419228
H        -1.85502442137644   -2.14359578462681    2.82258156478318
C         1.18652745279180   -2.32450196855481    5.15793382117297
Cl        2.95941296572444   -1.79929993177094    3.34517621364899
C        -0.05239111045327   -2.72564462270334    5.62241810279788
H        -2.08798941505916   -3.04372819198328    5.06565878326724
H         2.08114037730506   -2.42398148486667    5.75884629674483
H        -0.14448615345411   -3.13810314276324    6.61843613686097
96
 energy: -140.467654326627 gnorm: 0.049605736856 xtb: 6.4.0 (f63f532)
N        -0.96095489835712   -2.10199783449735   -0.25019253193048
C        -2.23884140073801   -1.69140436518068   -0.36304046886454
C        -3.13369266508818   -2.36328964583974   -1.20478422011592
C        -2.70331199280333   -3.46474581816236   -1.92091401764098
C        -1.38334144123554   -3.88341407808185   -1.78243634518596
C        -0.55311606305167   -3.16916014542617   -0.94033365145721
H         0.48098287293871   -3.44898388664764   -0.79156351050516
H        -1.00669272532909   -4.74313328696770   -2.31810045926367
H        -4.15437673371855   -2.02815529609009   -1.30845456260701
C        -2.61061735883194   -0.51387246086636    0.43705477110095
N        -1.61868067855451    0.06763746573107    1.14757687125084
C        -1.89740879519172    1.13771683865445    1.89603120485107
C        -3.16491426533441    1.68581099792662    1.98555958134706
C        -4.19589667690959    1.10130180034509    1.25898667928352
C        -3.91416263736991   -0.00516467856846    0.47831560379407
H        -4.70568007859810   -0.46899391338378   -0.09011125582010
H        -3.33987032947687    2.54889613618151    2.61251320111100
H        -1.05446552389023    1.55639269002182    2.42517504053375
Ir        0.42150000000000   -0.81650000000000    0.91330000000000
H         0.87260000000000   -2.23030000000000    1.54050000000000
B         0.49583332057115    0.42146197747527   -0.79159472084982
O         0.17602790184012   -0.03628961608968   -2.06341764066626
C         0.00888237040682    1.09645337465934   -2.94268096250792
C         0.48703273605513    0.74827821504163   -4.34838280332915
H         1.50639499203636    0.37233672217419   -4.32822976107708
H         0.44129450669379    1.62403079152736   -4.99643049218660
H        -0.15137984382299   -0.02790864880424   -4.76907149864141
C        -1.49566540573627    1.39803801007826   -2.96737771788940
H        -1.73527315572734    2.21127379606213   -3.65080787512629
H        -2.02566272922873    0.50095357214455   -3.28765853852740
H        -1.84213979230566    1.65252816536601   -1.96549172599755
C         0.83053925265500    2.20666062185026   -2.21162958807320
O         0.75547438881830    1.77836009563859   -0.83470734235258
C         2.31306249991185    2.19189910201240   -2.59998879750674
H         2.71889782835706    1.19312747832338   -2.45140868510390
H         2.46435420436013    2.51412478826613   -3.62954001018179
H         2.85553847334400    2.86644582245261   -1.93840520105704
C         0.27800682462503    3.62263296694300   -2.33738967524640
H        -0.72532274951122    3.69107970605403   -1.92495124695933
H         0.91734927863551    4.30663266006449   -1.78065623356918
H         0.25992317876028    3.93591462258307   -3.38138599826861
B         1.56104068227996    0.63588494049096    1.83976536486284
O         2.92423390274723    0.59581031146589    2.10464322977496
C         3.36249237911546    1.90656137635740    2.50170450567721
C         4.53092011206051    1.79407492958571    3.47402562747021
H         4.27737640474227    1.15981670166726    4.31990835860386
H         5.38538087206098    1.34830588574124    2.96628477251019
H         4.81739593027618    2.78078717513307    3.83696458082044
C         3.80072289428618    2.59046313085874    1.20403164785587
H         4.20414795608875    3.58447719243218    1.38857700536239
H         4.56342237609626    1.97404485271166    0.73003138237275
H         2.95234794952726    2.64090346981593    0.52254693814987
C         2.05022978936139    2.51249469917686    3.08877833073547
O         1.03437228045015    1.82069769437308    2.33516627683552
C         1.89098469043659    4.01373437620086    2.89156558591988
H         1.86579931090645    4.25709695198776    1.83307226491986
H         0.95352521601001    4.34098860408514    3.33917321503584
H         2.71284316164665    4.54768679368508    3.36771526238630
C         1.83258049494188    2.14005497679281    4.56001949511998
H         1.93812899000747    1.06420840802307    4.69644694795732
H         2.53384533067132    2.65983920628096    5.21013487913490
H         0.81789129347567    2.41516537852350    4.84765087413808
B         2.27819999999999   -1.33089999999999    0.17410000000002
O         2.90277982317020   -2.56302295981551    0.37923694992134
C         4.26847526234134   -2.48278943913515   -0.08713990780111
C         5.12807436953665   -2.05937226407640    1.10878723403113
H         4.78259142022554   -1.09635799455490    1.48178343690348
H         5.00248611638710   -2.79192020898331    1.90550008987673
H         6.18402769991798   -2.00113290078805    0.85181135195959
C         4.72132423849208   -3.84561178225950   -0.59511715150663
H         4.75166238433699   -4.54767405052465    0.23713627097995
H         5.71911201916669   -3.77389145781197   -1.02702596567349
H         4.03472052490406   -4.23396348460716   -1.34257762760946
C         4.16458898785108   -1.35681927515101   -1.16267405410638
O         3.07275791998791   -0.56129294754545   -0.66211974257487
C         5.40795924025070   -0.48854580062232   -1.31938608297915
H         6.26406314974566   -1.09426621718731   -1.61556195199103
H         5.22973345181421    0.26373538731339   -2.08667814531554
H         5.63669381668356    0.02438160093080   -0.38948497021980
C         3.72625151444409   -1.89604595041391   -2.53007970162978
H         2.83508110302122   -2.51287585175004   -2.42069176591051
H         3.46821681878337   -1.05461557374596   -3.17180487361552
H         4.51657930686672   -2.47289732941066   -3.00766038874769
H        -3.38269132707733   -3.98960277230222   -2.57881830976179
H        -5.20006529641720    1.50210334424803    1.29977319225439
C         0.23590000000000   -1.68140000000004    2.96030000000000
C        -0.99582262207518   -2.12443726976656    3.45711767656613
C         1.30191695221277   -1.89188279459718    3.85750980205242
C        -1.15640681443286   -2.63331820012835    4.73986909686040
H        -1.86257301722427   -2.11756884300165    2.80984236103049
C         1.15652148677779   -2.32627865272784    5.16708429354831
Cl        2.95308033249121   -1.80243196929342    3.36710760785529
C        -0.08820720752655   -2.71440965127883    5.61831949093517
H        -2.12047085605242   -3.01161117520634    5.04866797983989
H         2.04225446255882   -2.43190330099739    5.77595050223036
H        -0.19332487923314   -3.12391634408676    6.61195149827960
96
 energy: -140.471451617545 gnorm: 0.039845041080 xtb: 6.4.0 (f63f532)
N        -0.95211787305708   -2.09579063691930   -0.25632104433416
C        -2.22734335131433   -1.68630007061573   -0.36407992380525
C        -3.12733864570985   -2.35722762152990   -1.19997590648704
C        -2.70552668195869   -3.45546442655175   -1.91700885115301
C        -1.38610607133293   -3.87372179336474   -1.78317092660602
C        -0.55672056927276   -3.15994191678798   -0.94579912265088
H         0.47568197213268   -3.44444138669356   -0.80477425376101
H        -1.01504825254917   -4.73239088684868   -2.31720531559125
H        -4.14661758719899   -2.02388720515292   -1.29543072770655
C        -2.59580790657745   -0.51778823217341    0.43176307823982
N        -1.60701091749025    0.06077466022120    1.14128859278512
C        -1.89324404453636    1.12312878417565    1.88619680109461
C        -3.15667657802074    1.67001373900030    1.98096717080083
C        -4.18764126160026    1.08539059395472    1.25570977650900
C        -3.90080337400757   -0.01362985309966    0.47477533709347
H        -4.68997515046375   -0.48001551537688   -0.08961989452008
H        -3.33275228534452    2.52724963490325    2.60944225764845
H        -1.05662499142095    1.54737996482510    2.41721600304950
Ir        0.42150000000001   -0.81649999999999    0.91330000000000
H         0.87260000000000   -2.23030000000001    1.54050000000000
B         0.49340847995820    0.43065557825186   -0.76938038993439
O         0.15446783502950   -0.02666758709390   -2.03438267770606
C         0.00226228886150    1.09381164157549   -2.92294916666649
C         0.48369547114390    0.74343475310131   -4.32734045446180
H         1.49941160666278    0.36495713796434   -4.30997400903118
H         0.43606406117012    1.62315069629834   -4.96362964598013
H        -0.15829181720779   -0.02646373548907   -4.74654336156790
C        -1.50077447646527    1.40343992865718   -2.96489209379702
H        -1.72302590887550    2.21319529293284   -3.65249455324067
H        -2.02958570722668    0.50879980607080   -3.28609506840522
H        -1.84800001815785    1.65965831388255   -1.96628342252647
C         0.81985751259602    2.20617501377859   -2.19796161627620
O         0.75787514472384    1.78024516657081   -0.82675050555996
C         2.29941654426291    2.19856488055897   -2.59811362727908
H         2.70313808661556    1.20174555775110   -2.44380868912849
H         2.43650959027661    2.51483123478423   -3.62787836290757
H         2.84159041364858    2.87694156799780   -1.94434626546280
C         0.26449730768399    3.62071024923147   -2.33110283369055
H        -0.73418698518983    3.69407739704896   -1.91471780016294
H         0.90889735416401    4.30233511420619   -1.78311722198026
H         0.24699189609234    3.91814636567904   -3.37578481864679
B         1.56023660146815    0.65099019094755    1.84399292366466
O         2.92173267878300    0.62553708712726    2.06521253108803
C         3.35916275207557    1.92044821630850    2.49170134016846
C         4.52450472599280    1.79901728730075    3.46791831015353
H         4.27177921321226    1.15453648009737    4.30302910830257
H         5.37561720397227    1.36096096393132    2.95430916963779
H         4.80312332787561    2.78197785609987    3.83580612141545
C         3.80564030459711    2.62917283911829    1.20997464005055
H         4.20791577464208    3.61797877771072    1.40211051989488
H         4.56562594555599    2.01352564820289    0.73587703543728
H         2.95683110843695    2.67375513493531    0.53222935673026
C         2.05057467978243    2.52126665561484    3.08640075681465
O         1.03386472161155    1.82105360280054    2.35133111583168
C         1.88854390602543    4.02291210020058    2.89475403009761
H         1.85441271485950    4.26669768450932    1.83919804037867
H         0.95661196588486    4.34415471166589    3.35035424424300
H         2.71420679499921    4.54672425272856    3.36632299676769
C         1.84737429315911    2.15031395219214    4.56100474640010
H         1.95844223326591    1.07582216262144    4.68697038371743
H         2.55049446869574    2.67208753929014    5.20112273309474
H         0.83432502888954    2.41729284144857    4.85241867570017
B         2.27819999999998   -1.33089999999997    0.17410000000005
O         2.91182463595738   -2.54798897807819    0.38608616155489
C         4.26480112709239   -2.47839289466213   -0.09905945537995
C         5.14759674690598   -2.06202703223746    1.08206514323085
H         4.80921015463755   -1.09906788993479    1.45565945074710
H         5.03161157633438   -2.79076892086900    1.87987340623421
H         6.19406238000011   -2.01032667238655    0.80082319147416
C         4.71389336387876   -3.84141856229577   -0.61148711087879
H         4.74758818062931   -4.53458004069787    0.22379633009575
H         5.70690417883761   -3.76166115880809   -1.04303234202889
H         4.02597544665671   -4.23278314902807   -1.35197564940401
C         4.15796664827930   -1.35208781459159   -1.16873152225304
O         3.05810600398888   -0.56959820970286   -0.67287628128883
C         5.40134314643124   -0.48368538036831   -1.32344326416707
H         6.24915993240257   -1.09633612619746   -1.61481700967611
H         5.22339877247754    0.26246661395041   -2.09216756478796
H         5.62735378879022    0.03040620503763   -0.39667239364264
C         3.73166002518691   -1.89289201897332   -2.53950039325324
H         2.84274074461298   -2.50777185919170   -2.42674803627932
H         3.47533547498255   -1.05389904884367   -3.18098374001531
H         4.52822572878758   -2.46435941101976   -3.00438212533117
H        -3.38624107560013   -3.98066224868548   -2.56811206174191
H        -5.19060846275220    1.48040043199900    1.30166159933330
C         0.23590000000000   -1.68140000000010    2.96030000000000
C        -1.01243209406724   -2.10093930162082    3.44014900036279
C         1.28818842285122   -1.89428762708031    3.87088747681813
C        -1.19928240201977   -2.59910478509477    4.72235235144759
H        -1.87152588283798   -2.07729022229951    2.78370774441212
C         1.11592308251202   -2.32877264454795    5.17669331809498
Cl        2.94113653540154   -1.76425487934043    3.38791954759472
C        -0.14150901846830   -2.69625912489932    5.61077664234136
H        -2.17503435407105   -2.95381761912107    5.02196096702127
H         1.98853170587538   -2.43981163732288    5.80152286010173
H        -0.26927544043765   -3.09743028756910    6.60451087142975
96
 energy: -140.473946741628 gnorm: 0.037989865136 xtb: 6.4.0 (f63f532)
N        -0.93953481515651   -2.09288000179208   -0.26707831785275
C        -2.21562771802470   -1.68385744576265   -0.36811849251716
C        -3.12198171715665   -2.35494635337115   -1.19824338952427
C        -2.70716103606212   -3.45308037927416   -1.91720872512769
C        -1.38547144442801   -3.87118034196680   -1.79095837168546
C        -0.55158345818066   -3.15617136261732   -0.95920997896362
H         0.48066425583249   -3.44554217853767   -0.82485838755775
H        -1.01918432501002   -4.73036499204684   -2.32558701717085
H        -4.14121370491752   -2.02022848923396   -1.28563931632377
C        -2.58195752768623   -0.52034057228887    0.42710006413709
N        -1.59365845111832    0.05946194802546    1.13639261129382
C        -1.88509456056326    1.11861289944182    1.88162525190892
C        -3.14975473700614    1.66049677598510    1.98164707218904
C        -4.18150909501441    1.07284846363103    1.25675388129428
C        -3.88968818068445   -0.02115987797638    0.47287060835691
H        -4.67626383912923   -0.49047275070569   -0.09198762449183
H        -3.32814742757629    2.51321331371301    2.61377228340390
H        -1.05299984721247    1.54648551460755    2.41714575271744
Ir        0.42150000000001   -0.81649999999999    0.91330000000000
H         0.87260000000000   -2.23030000000001    1.54050000000001
B         0.48436296609865    0.44363607362665   -0.74899706744558
O         0.13060036409069   -0.01821138285709   -2.00815527653575
C        -0.00952617469799    1.09330327150417   -2.90255817300533
C         0.47774498416614    0.73573500010395   -4.30410946749795
H         1.49130557291138    0.35280225856007   -4.28389352010835
H         0.43442665176034    1.61744357314204   -4.93674296758580
H        -0.16757788327594   -0.03045653952271   -4.72391601440056
C        -1.51160110367176    1.41127258452658   -2.96071640767259
H        -1.71856615017874    2.21933135271728   -3.65386710868813
H        -2.04067163022082    0.51814074017445   -3.28429101874875
H        -1.86591731584264    1.67253125309418   -1.96635550376687
C         0.80839355668485    2.20854705767285   -2.18258166163783
O         0.75881979144997    1.78803470909322   -0.81383299358101
C         2.28566948747023    2.20599300837382   -2.59520435573239
H         2.69284056362441    1.21165339505247   -2.43568065143282
H         2.40984541362923    2.51510896825087   -3.62803664064972
H         2.82870172192470    2.89207330031717   -1.95085194674287
C         0.24922134443226    3.62216503477948   -2.32167454028386
H        -0.74666069837705    3.69868444699294   -1.90010480769293
H         0.89787271792509    4.30747739361629   -1.78402788715624
H         0.22654645033634    3.90661183219067   -3.36923824007671
B         1.56162638086701    0.67164482419327    1.82929606501033
O         2.92197883477864    0.65666226324792    2.02162502506290
C         3.35663004077267    1.93931498299306    2.47808699333785
C         4.52010010504077    1.80229405268528    3.45705663389689
H         4.26668633900635    1.14396456243871    4.28088954200969
H         5.37295129651036    1.37501028803602    2.93777524042204
H         4.79245335335332    2.78097398672955    3.83928598713675
C         3.81056943406958    2.67455052138375    1.21162827394902
H         4.20830382541648    3.66018735229187    1.42350022723253
H         4.57532946540830    2.06821714958590    0.73330223954741
H         2.96498573670562    2.72639417866870    0.53105694129883
C         2.04804802561531    2.52945485459408    3.08524006858650
O         1.02849403219590    1.82262595770316    2.36507817696519
C         1.88077480804895    4.03247509104772    2.89881201633818
H         1.83539690041766    4.28070247470741    1.84485308192111
H         0.95429054362607    4.35060791916513    3.36670545252094
H         2.71225206539050    4.55171022780972    3.36384902757667
C         1.86418309998121    2.15958900937021    4.56422077614667
H         1.98336680478666    1.08588366964953    4.68620963384794
H         2.57092871598633    2.68659052363735    5.19475009958389
H         0.85227801055210    2.41988253334685    4.86408597680887
B         2.27819999999996   -1.33089999999996    0.17410000000008
O         2.92046001605998   -2.53721407735886    0.39756689200254
C         4.26174693838026   -2.47347436875637   -0.10912325876783
C         5.16837431078446   -2.06281691506540    1.05775220982032
H         4.84170379987800   -1.09790138196852    1.43608589684512
H         5.06295297468429   -2.79060318082515    1.85727038910413
H         6.20832131282093   -2.01827405697278    0.75219473634455
C         4.70284950480853   -3.83838802824642   -0.62836365318392
H         4.74299246299412   -4.52970679414611    0.20753290757269
H         5.69195629473060   -3.75542563449265   -1.06660692313136
H         4.00978755859004   -4.23002520751350   -1.36334939551153
C         4.14879901939641   -1.34736779966533   -1.17830672374235
O         3.04198732983954   -0.57428127797277   -0.68845159937345
C         5.39065287516594   -0.47458012061129   -1.33038964079500
H         6.23733644911567   -1.09078833794562   -1.61547228063858
H         5.21466218632775    0.26667017175472   -2.10351762075054
H         5.61293898745681    0.04363782366736   -0.40549076632782
C         3.73489445946668   -1.89060216468155   -2.55305835516921
H         2.84747837650674   -2.50739287915631   -2.44459945410910
H         3.48237650790407   -1.05267689379244   -3.19675228958544
H         4.53878467577348   -2.45879318661470   -3.00742802641607
H        -3.39192659112020   -3.97806915994040   -2.56332818994381
H        -5.18599309734458    1.46185993150887    1.30675580632460
C         0.23590000000001   -1.68140000000017    2.96029999999999
C        -1.03035344016953   -2.07359375758768    3.41798791615547
C         1.27020401359858   -1.89224740853046    3.88952648105881
C        -1.25004433231575   -2.55536128980949    4.70104477510538
H        -1.87801339554153   -2.03460755729443    2.74708904276015
C         1.06724636023224   -2.32793587830172    5.19036081563766
Cl        2.92847269482528   -1.73892166298440    3.42454359998366
C        -0.20556870999674   -2.67168630369137    5.60332192153915
H        -2.24085386153780   -2.87952261528400    4.98970450807732
H         1.92489283061929   -2.44926947276213    5.83413403066814
H        -0.36063474256298   -3.06339018307663    6.59758514647635
96
 energy: -140.476160850602 gnorm: 0.036826824831 xtb: 6.4.0 (f63f532)
N        -0.92740644828277   -2.09535554969077   -0.27600389219059
C        -2.20475396699260   -1.68447358913605   -0.37332643421768
C        -3.11546505234209   -2.35494722971549   -1.20070801551981
C        -2.70573381955182   -3.45357968778283   -1.92189247144611
C        -1.38182556362318   -3.87156013232343   -1.80302973837243
C        -0.54293684204829   -3.15732582330789   -0.97404642009444
H         0.49086980367930   -3.44766666985605   -0.84887406847333
H        -1.01895034354196   -4.73087218059311   -2.34068126315286
H        -4.13503925619221   -2.01803969411396   -1.28147600576596
C        -2.56957473101513   -0.52211365408540    0.42224071576533
N        -1.58106590953884    0.05860349796543    1.13418563907661
C        -1.87617126923301    1.11695441369007    1.88181881869972
C        -3.14328762704090    1.65370904301910    1.98432218136233
C        -4.17507547593816    1.06414902619256    1.25804106009870
C        -3.87901845057541   -0.02520545064243    0.46933668163508
H        -4.66337689563981   -0.49705656537933   -0.09738975065957
H        -3.32409661761936    2.50327705229073    2.62047555348273
H        -1.04639892383167    1.54926106407055    2.41842963558253
Ir        0.42150000000001   -0.81649999999999    0.91330000000000
H         0.87260000000000   -2.23030000000002    1.54050000000001
B         0.47788062289869    0.45788872999598   -0.73140484370985
O         0.10396296744458   -0.00748028463546   -1.98376551801333
C        -0.02601738759830    1.09691654843222   -2.88260710092579
C         0.46893965119012    0.72660744030686   -4.27908318370852
H         1.47982219957984    0.33565003678297   -4.24898409445259
H         0.43693731129800    1.60601145850614   -4.91652496669502
H        -0.17957344455896   -0.03747969034239   -4.69917214107338
C        -1.52673984415473    1.42325676663476   -2.95624008545495
H        -1.72051523391314    2.22976422469044   -3.65562238768200
H        -2.05736669953738    0.53143045546994   -3.28216475077749
H        -1.89188577536410    1.69178560729992   -1.96717359909898
C         0.79611613287908    2.21532687394316   -2.16825269680965
O         0.75823037099265    1.79941757703835   -0.80018209240397
C         2.27130798085458    2.21667962808526   -2.59192932807347
H         2.68532537098212    1.22579915279072   -2.42567176108019
H         2.38474450454979    2.51624462672367   -3.62918872325172
H         2.81550838020441    2.91322593608474   -1.95889491005236
C         0.23150480081715    3.62748996303766   -2.31042111479217
H        -0.76133550843163    3.70503326794416   -1.88050126089187
H         0.88380699972347    4.31972065737007   -1.78477059514952
H         0.19792010260296    3.90272480691652   -3.36082412584862
B         1.56110418195904    0.67790621800249    1.83208726026822
O         2.92679378330767    0.68491822728310    1.97872708063819
C         3.35608354479297    1.95955299446038    2.46174915041168
C         4.51914840139835    1.80456600072636    3.44021002542735
H         4.26548021514007    1.12733084886087    4.24955900567460
H         5.37611837568859    1.39248103886943    2.91390781643794
H         4.78580990752686    2.77686076291608    3.84557239496309
C         3.81462618039466    2.72917179604764    1.21464604289666
H         4.20462411959279    3.71284846397347    1.45531120162040
H         4.58896222057566    2.14056252319121    0.72766404624793
H         2.97477988464310    2.79623328821181    0.52758939836630
C         2.04751705610212    2.53712883799711    3.08691606005130
O         1.02461676598996    1.81885177068378    2.38460275520137
C         1.86812416555804    4.04091610286826    2.90330295413865
H         1.80637018089830    4.29403089266472    1.85051387133490
H         0.94777216507660    4.35617130844054    3.38719479766438
H         2.70522717327000    4.56271783288360    3.35745241614443