99
 energy: -143.951428494488 gnorm: 0.080405332384 xtb: 6.4.1 (1a32961)
N        -0.96510000000000   -2.11530000000000   -0.24090000000000
C        -2.24700000000000   -1.69840000000000   -0.36220000000000
C        -3.14040000000000   -2.36820000000000   -1.21200000000000
C        -2.70220000000000   -3.47560000000000   -1.93050000000000
C        -1.37780000000000   -3.89880000000000   -1.78760000000000
C        -0.54290000000000   -3.18670000000000   -0.93510000000000
H         0.49810000000000   -3.45630000000000   -0.78940000000000
H        -0.99570000000000   -4.76030000000000   -2.32770000000000
H        -4.16500000000000   -2.02890000000000   -1.31830000000000
C        -2.62130000000000   -0.50950000000000    0.44100000000000
N        -1.62600000000000    0.07330000000000    1.16020000000000
C        -1.89680000000000    1.15240000000000    1.91690000000000
C        -3.17230000000000    1.70330000000000    1.99650000000000
C        -4.20510000000000    1.11740000000000    1.26270000000000
C        -3.92610000000000    0.00250000000000    0.47820000000000
H        -4.71960000000000   -0.46420000000000   -0.09520000000000
H        -3.34630000000000    2.57510000000000    2.62070000000000
H        -1.04450000000000    1.57420000000000    2.43690000000000
Ir        0.42150000000000   -0.81650000000000    0.91330000000000
H         0.87260000000000   -2.23030000000000    1.54050000000000
B         0.50670000000000    0.41560000000000   -0.81540000000000
O         0.19500000000000   -0.04700000000000   -2.09150000000000
C         0.00650000000000    1.10040000000000   -2.95430000000000
C         0.49020000000000    0.74740000000000   -4.35780000000000
H         1.51610000000000    0.37380000000000   -4.33700000000000
H         0.44730000000000    1.62240000000000   -5.01670000000000
H        -0.14740000000000   -0.03390000000000   -4.78430000000000
C        -1.50120000000000    1.39560000000000   -2.96670000000000
H        -1.75370000000000    2.21460000000000   -3.64850000000000
H        -2.03200000000000    0.49450000000000   -3.28930000000000
H        -1.85170000000000    1.65210000000000   -1.96220000000000
C         0.84230000000000    2.20670000000000   -2.22040000000000
O         0.75200000000000    1.78260000000000   -0.83690000000000
C         2.32930000000000    2.18620000000000   -2.59900000000000
H         2.74130000000000    1.18500000000000   -2.45750000000000
H         2.48870000000000    2.51300000000000   -3.63180000000000
H         2.87200000000000    2.86270000000000   -1.93200000000000
C         0.28440000000000    3.62290000000000   -2.33660000000000
H        -0.72650000000000    3.69040000000000   -1.92910000000000
H         0.92130000000000    4.31480000000000   -1.77610000000000
H         0.26430000000000    3.94810000000000   -3.38320000000000
B         1.56300000000000    0.60960000000000    1.84840000000000
O         2.92780000000000    0.55230000000000    2.15020000000000
C         3.36330000000000    1.88660000000000    2.50260000000000
C         4.53140000000000    1.78590000000000    3.47740000000000
H         4.27910000000000    1.16090000000000    4.33690000000000
H         5.39390000000000    1.33790000000000    2.97340000000000
H         4.82390000000000    2.77870000000000    3.83820000000000
C         3.79700000000000    2.56850000000000    1.19670000000000
H         4.20020000000000    3.57090000000000    1.37680000000000
H         4.56740000000000    1.95560000000000    0.72110000000000
H         2.95240000000000    2.63260000000000    0.50540000000000
C         2.05040000000000    2.50090000000000    3.09320000000000
O         1.03750000000000    1.81620000000000    2.31910000000000
C         1.89100000000000    4.00450000000000    2.88650000000000
H         1.87290000000000    4.25440000000000    1.82410000000000
H         0.94940000000000    4.34260000000000    3.33170000000000
H         2.71080000000000    4.55150000000000    3.36630000000000
C         1.82470000000000    2.13200000000000    4.56520000000000
H         1.92610000000000    1.05330000000000    4.71320000000000
H         2.52610000000000    2.65280000000000    5.22540000000000
H         0.80630000000000    2.41580000000000    4.84900000000000
B         2.27820000000000   -1.33090000000000    0.17410000000000
O         2.89460000000000   -2.57740000000000    0.38450000000000
C         4.26930000000000   -2.48200000000000   -0.07210000000000
C         5.10900000000000   -2.05380000000000    1.14010000000000
H         4.76350000000000   -1.08740000000000    1.51750000000000
H         4.98050000000000   -2.79470000000000    1.93590000000000
H         6.17420000000000   -1.99290000000000    0.89300000000000
C         4.71950000000000   -3.84660000000000   -0.58470000000000
H         4.75280000000000   -4.56130000000000    0.24420000000000
H         5.72330000000000   -3.78370000000000   -1.02010000000000
H         4.03500000000000   -4.23600000000000   -1.34170000000000
C         4.16440000000000   -1.36220000000000   -1.16300000000000
O         3.08520000000000   -0.55030000000000   -0.65400000000000
C         5.40720000000000   -0.48870000000000   -1.31550000000000
H         6.27320000000000   -1.09010000000000   -1.61530000000000
H         5.23300000000000    0.26930000000000   -2.08590000000000
H         5.64270000000000    0.02650000000000   -0.38240000000000
C         3.71800000000000   -1.89830000000000   -2.53110000000000
H         2.82530000000000   -2.52160000000000   -2.42740000000000
H         3.46090000000000   -1.05250000000000   -3.17550000000000
H         4.50570000000000   -2.48290000000000   -3.01790000000000
H        -3.38500000000000   -4.00130000000000   -2.59310000000000
H        -5.21400000000000    1.52080000000000    1.29960000000000
C         0.23590000000000   -1.68140000000000    2.96030000000000
C        -0.97186933557972   -2.18601338118065    3.43316766873815
C         1.33339888804497   -1.82110109793985    3.85265883937618
C        -1.12823218655422   -2.67875359791921    4.72802132556571
H        -1.82847422717527   -2.24157323155577    2.77178242220435
C         1.15030011389430   -2.23200675376639    5.18432043808044
C         2.73106426627609   -1.68212308094335    3.58044138972253
C        -0.08436459014228   -2.68852557638330    5.63690836379286
H        -2.07924429153638   -3.10388004236506    5.02444854782735
S         2.63635252497970   -2.27674254038046    6.08149421393630
C         3.52311436033974   -1.86674866919221    4.66279903498191
H         3.09523935463754   -1.47441142615554    2.59490461857063
H        -0.18740329202853   -3.08897155319535    6.63619306866890
H         4.59584004584012   -1.79569960022340    4.71693119408175
99
 energy: -143.959751115862 gnorm: 0.050221507546 xtb: 6.4.1 (1a32961)
N        -0.96108978126831   -2.10165349420786   -0.25003296900202
C        -2.23935517164966   -1.69163877682398   -0.36277757480437
C        -3.13388886344565   -2.36325160282460   -1.20523702429325
C        -2.70333360661085   -3.46444597504135   -1.92148062130812
C        -1.38322237480570   -3.88302274951528   -1.78266533875770
C        -0.55325146165246   -3.16875379170823   -0.94043594562145
H         0.48072828301351   -3.44853916542315   -0.79157428492967
H        -1.00659748720240   -4.74272044139775   -2.31844923758239
H        -4.15458350296655   -2.02813307494760   -1.30909962718809
C        -2.61119243195126   -0.51494231830669    0.43790711708744
N        -1.61896444423457    0.06528203045025    1.14950459815532
C        -1.89749960422339    1.13634028882720    1.89682778030784
C        -3.16462977509855    1.68542077676073    1.98527428656091
C        -4.19592768023719    1.10128093479917    1.25856784322982
C        -3.91440813208168   -0.00521045196733    0.47808677203225
H        -4.70593143430772   -0.46846866721708   -0.09088781844669
H        -3.33959970273923    2.54876784450363    2.61195603979703
H        -1.05439345185478    1.55525027218238    2.42543762163436
Ir        0.42150000000000   -0.81650000000000    0.91330000000000
H         0.87260000000000   -2.23030000000000    1.54050000000000
B         0.49075521523828    0.42382495112180   -0.79096620027238
O         0.17526931393806   -0.03498563278494   -2.06342781589110
C         0.00899416784280    1.09731075973099   -2.94321174608731
C         0.48764695390161    0.74863143108149   -4.34858845557157
H         1.50692465611856    0.37258406161754   -4.32798467541132
H         0.44210741722525    1.62421699329188   -4.99685054288743
H        -0.15076597752189   -0.02754715402298   -4.76924905309692
C        -1.49550156335490    1.39878907546776   -2.96814388272837
H        -1.73525509871103    2.21196706317014   -3.65156622585130
H        -2.02538267747925    0.50158452980766   -3.28824677342955
H        -1.84194685346060    1.65303347628014   -1.96620782080024
C         0.83071891294082    2.20734835047524   -2.21196399148091
O         0.75472353716125    1.77978894643219   -0.83502554623034
C         2.31339706338589    2.19194908740533   -2.59962315726214
H         2.71849727585690    1.19298341837173   -2.45073710316807
H         2.46500663807372    2.51410969559518   -3.62913765050473
H         2.85558101099701    2.86651047172403   -1.93790299079564
C         0.27851676742790    3.62335025578011   -2.33782743132983
H        -0.72480314517000    3.69165195782584   -1.92539159945959
H         0.91776316908966    4.30711632088116   -1.78076450374438
H         0.26043165566041    3.93678258763905   -3.38175684048699
B         1.55886807208934    0.63485584959547    1.84355267339753
O         2.92407672111285    0.59653373740439    2.10430255612809
C         3.36193218829314    1.90720167634081    2.50226653919869
C         4.53018658084649    1.79358303461750    3.47446687168085
H         4.27453632628977    1.16045019085688    4.32053105038270
H         5.38468357437153    1.34822768478294    2.96657320929557
H         4.81714448110601    2.77990436134342    3.83767036768368
C         3.80069529731844    2.59108870076909    1.20481321551617
H         4.20400003499810    3.58511614837035    1.38899975142107
H         4.56322836200148    1.97458549865402    0.73094672933486
H         2.95222521090107    2.64101331228538    0.52363787006033
C         2.04993151390847    2.51258038136342    3.08949497189344
O         1.03434162003373    1.82066835201895    2.33618736866391
C         1.89072680026744    4.01385639713348    2.89223684096550
H         1.86542433066577    4.25685327627566    1.83371459866999
H         0.95323278866628    4.34116893080845    3.33958193043250
H         2.71232881697163    4.54816183340668    3.36841495098655
C         1.83262362228931    2.13991825896057    4.56050711360699
H         1.93800271637080    1.06388244443627    4.69483972559081
H         2.53352739717824    2.65903424067144    5.21159881868226
H         0.81793502948296    2.41479142102168    4.84827987467616
B         2.27820000000000   -1.33089999999999    0.17410000000000
O         2.90555433099756   -2.56082439691333    0.38804823201666
C         4.26958101046272   -2.48239146814222   -0.08365217583014
C         5.12715350411057   -2.05858873034006    1.11412345018177
H         4.79119150635850   -1.08948870577970    1.47980821169180
H         4.99353619884991   -2.78834282170038    1.91269520592786
H         6.18347615933906   -2.00797753182826    0.85784129819827
C         4.72166346242332   -3.84532948347343   -0.59242546362141
H         4.75184971212111   -4.54852982511466    0.23872330859707
H         5.71897542551369   -3.77442081761578   -1.02558128980535
H         4.03456219584889   -4.23273646660454   -1.33978685696474
C         4.16607291225584   -1.35780094342976   -1.16113562801031
O         3.07434111954674   -0.56239304999662   -0.66078198086434
C         5.40898745167291   -0.48896705544793   -1.31820768573302
H         6.26519830119494   -1.09421144535588   -1.61484539373024
H         5.22996478099031    0.26267612655874   -2.08574442493853
H         5.63750546070771    0.02520111386376   -0.38903410946546
C         3.72734724938593   -1.89685277144118   -2.52852393683729
H         2.83580602705548   -2.51305340654885   -2.41937973613298
H         3.46919812955311   -1.05517633604067   -3.16978345568112
H         4.51719830438090   -2.47352966143553   -3.00703713540171
H        -3.38261300721819   -3.98926602510526   -2.57957350621248
H        -5.20001743312596    1.50244830154275    1.29911620802208
C         0.23589999999999   -1.68140000000000    2.96030000000000
C        -0.97921030627422   -2.16943466178455    3.42855657647024
C         1.32591007446250   -1.82350469971347    3.85965349645243
C        -1.14662893756967   -2.65747022473253    4.72626533350189
H        -1.83391090318776   -2.21663750592297    2.76597488725419
C         1.12798341994684   -2.23090930998541    5.19230386962324
C         2.72267488229073   -1.69144736523800    3.59201132145940
C        -0.10896851297806   -2.67486492738327    5.63661953445153
H        -2.10170930003244   -3.07227286050656    5.01879218806763
S         2.61485409876388   -2.28448283475181    6.09556305729473
C         3.50787863376517   -1.87909485727775    4.67096593570520
H         3.08664504195213   -1.48451007294652    2.61131239749512
H        -0.22068134755490   -3.07185611688650    6.63420575969845
H         4.57859808135668   -1.81440229320731    4.72605962485725
99
 energy: -143.963164489042 gnorm: 0.039777094131 xtb: 6.4.1 (1a32961)
N        -0.95228149970442   -2.09552320315869   -0.25630083927694
C        -2.22842501047752   -1.68723458936236   -0.36348117237462
C        -3.12788215105096   -2.35757959773653   -1.20078129300072
C        -2.70554958694653   -3.45509293076026   -1.91855039760010
C        -1.38576286290254   -3.87323595489150   -1.78421648198006
C        -0.55667625129970   -3.15954241093734   -0.94650468896882
H         0.47573197593640   -3.44365165359376   -0.80559252274479
H        -1.01469243480188   -4.73180522730281   -2.31869404267935
H        -4.14726295004770   -2.02411725884713   -1.29643463253982
C        -2.59714984620548   -0.52019598345173    0.43364276264598
N        -1.60794011633347    0.05586376020898    1.14568187318365
C        -1.89371893022921    1.12002371643709    1.88888231152068
C        -3.15644350357076    1.66897537816042    1.98111136179424
C        -4.18790463933283    1.08525642450610    1.25512753701348
C        -3.90148157484276   -0.01393868554628    0.47439474463282
H        -4.69046667530880   -0.47898644961976   -0.09169834759240
H        -3.33237513440436    2.52719702360695    2.60856245935342
H        -1.05673003027841    1.54432126177552    2.41932099574773
Ir        0.42150000000000   -0.81650000000000    0.91330000000000
H         0.87260000000000   -2.23030000000000    1.54050000000000
B         0.49089794535087    0.43431905597520   -0.76870654510518
O         0.15379143368030   -0.02423718115172   -2.03392337627574
C         0.00242964909874    1.09566084347734   -2.92323457513685
C         0.48478347209419    0.74420098974752   -4.32704980207691
H         1.50047728043991    0.36555024098751   -4.30878603233445
H         0.43776951609605    1.62355399551628   -4.96406895334244
H        -0.15714721567986   -0.02579053836928   -4.74640353016837
C        -1.50047955919126    1.40557216388945   -2.96613258004610
H        -1.72297148564449    2.21523734105562   -3.65398576056763
H        -2.02914939149951    0.51070163275995   -3.28724746752177
H        -1.84812518641687    1.66166318781088   -1.96758157849354
C         0.82013509978184    2.20813322321598   -2.19832210642607
O         0.75643810912918    1.78354136325459   -0.82694513743931
C         2.30007310800488    2.19924489911792   -2.59698380201606
H         2.70255678689649    1.20204661018472   -2.44198521200693
H         2.43802492624533    2.51514429612262   -3.62685003607816
H         2.84179987716588    2.87771776000146   -1.94296141600199
C         0.26511810818903    3.62264585907597   -2.33204853490307
H        -0.73371331418495    3.69586860765531   -1.91577061951211
H         0.90935320628121    4.30416618136578   -1.78361580970821
H         0.24762425826035    3.92041688505505   -3.37673993624615
B         1.55626496155229    0.65259153451683    1.84417633361130
O         2.91951051309969    0.62462582075197    2.06739180371139
C         3.35755084136102    1.91994550819486    2.49316226514989
C         4.52207816003819    1.79697915729997    3.46988556907184
H         4.26564180009066    1.15475255019786    4.30559536889467
H         5.37322085446813    1.35905569665625    2.95640080925026
H         4.80210552810994    2.77953273777077    3.83792427330095
C         3.80526559742498    2.62970395090471    1.21221121001500
H         4.20721210002758    3.61875366092362    1.40425348459988
H         4.56540611434997    2.01444888401671    0.73822339300511
H         2.95674878312601    2.67432924704661    0.53433035543939
C         2.04966906398525    2.52111566369663    3.08777033249865
O         1.03307095109240    1.82201239007323    2.35233606277208
C         1.88766994726850    4.02303992854556    2.89659690916981
H         1.85343598305399    4.26674136946082    1.84098547822381
H         0.95563370212827    4.34456886028290    3.35194961295870
H         2.71298771845199    4.54748328929396    3.36834524042659
C         1.84702424994896    2.14904166618504    4.56189199177385
H         1.95748552240203    1.07407066461970    4.68433327551569
H         2.54978389858341    2.66933160393725    5.20392246645458
H         0.83411589288858    2.41605882931210    4.85404525833849
B         2.27820000000000   -1.33089999999998    0.17410000000001
O         2.91644350097110   -2.54487812770079    0.39932499804750
C         4.26770011002720   -2.47741815247639   -0.09178779285115
C         5.15007643578685   -2.06014758469548    1.09042895893435
H         4.82866580117903   -1.08570869385806    1.44948657192772
H         5.01644105210410   -2.78152311689712    1.89260861015386
H         6.19855259453222   -2.02643022956583    0.81323052987129
C         4.71493606524746   -3.84089534286899   -0.60478164286424
H         4.74866583652172   -4.53606204351980    0.22881072056832
H         5.70711330480058   -3.76255455795956   -1.03882848481148
H         4.02559716577883   -4.23031791151935   -1.34502376711325
C         4.16045773445575   -1.35375832803940   -1.16502085420617
O         3.05946579014786   -0.57167617213844   -0.67178332289262
C         5.40321741313316   -0.48450082725308   -1.32036930761477
H         6.25166118433058   -1.09624979071639   -1.61206671585129
H         5.22407123934571    0.26035582785545   -2.09001268460111
H         5.62906399570136    0.03206324907567   -0.39496904405364
C         3.73465193908942   -1.89541961559753   -2.53560273557676
H         2.84514634460868   -2.50955539954461   -2.42357384212995
H         3.47818243457249   -1.05588292958808   -3.17641524704305
H         4.53073095759382   -2.46656642959990   -3.00192501575747
H        -3.38610266215305   -3.97997049654406   -2.57032373508012
H        -5.19063812184485    1.48140939480262    1.30006554668312
C         0.23589999999998   -1.68139999999999    2.96029999999999
C        -0.99209420310751   -2.14368521864613    3.41971986823647
C         1.31536747870597   -1.82323818303970    3.86848765571245
C        -1.17914940265705   -2.61957305230423    4.72079589325389
H        -1.84370239264031   -2.17808968891030    2.75329007715482
C         1.09781434798591   -2.22767580857219    5.20046569488188
C         2.71287316594695   -1.68727083547962    3.61020445718911
C        -0.14761561279408   -2.65049262457430    5.63552810705575
H        -2.14443248934239   -3.01284078221222    5.00809151044419
S         2.58309989134592   -2.29780463397103    6.11395490403229
C         3.48925548811296   -1.89241741390041    4.68884666852839
H         3.08061855465122   -1.47046901666167    2.63340388154322
H        -0.27536799607264   -3.03908320531743    6.63399692825234
H         4.55901275039285   -1.84155276197955    4.75088866151339
99
 energy: -143.965346613805 gnorm: 0.038421023670 xtb: 6.4.1 (1a32961)
N        -0.93987854062370   -2.09320041953111   -0.26697562081674
C        -2.21708906893886   -1.68575420364041   -0.36702150856494
C        -3.12265375753079   -2.35599884205225   -1.19906178022349
C        -2.70706120026102   -3.45271076181318   -1.91950641824292
C        -1.38495085571698   -3.87045870699780   -1.79292985624139
C        -0.55159816127141   -3.15582953346820   -0.96055263659621
H         0.48073381473091   -3.44453530751676   -0.82655564902596
H        -1.01858513951503   -4.72919053173087   -2.32846838436593
H        -4.14202658989336   -2.02129290267209   -1.28647894906287
C        -2.58388802399074   -0.52428753309796    0.43011173110027
N        -1.59536211553856    0.05207610531751    1.14296267876220
C        -1.88634124852548    1.11314411976020    1.88631464790070
C        -3.14975391319044    1.65822713667326    1.98245380621475
C        -4.18184166981751    1.07232754426459    1.25602243985456
C        -3.89060171206509   -0.02202414652600    0.47265117541174
H        -4.67670826121118   -0.48901170697583   -0.09506817260365
H        -3.32783133864470    2.51245069564874    2.61287621056290
H        -1.05406136474533    1.54025119934986    2.42214150449478
Ir        0.42150000000000   -0.81650000000000    0.91330000000000
H         0.87260000000000   -2.23030000000000    1.54050000000000
B         0.47678940776871    0.44999663366740   -0.74697606603494
O         0.12817635284492   -0.01377231072188   -2.00693328465230
C        -0.00972339257085    1.09669792237392   -2.90289253638333
C         0.47955995156848    0.73713022680283   -4.30324242712964
H         1.49291407084927    0.35366399778736   -4.28101707365244
H         0.43763900658656    1.61802541195795   -4.93724577022919
H        -0.16556457031332   -0.02922741302810   -4.72319492760943
C        -1.51153697908247    1.41510973599672   -2.96306227422253
H        -1.71813435764098    2.22295086497068   -3.65676152160817
H        -2.04043954467946    0.52179243647022   -3.28664395035151
H        -1.86688289652281    1.67650979289872   -1.96905622097946
C         0.80809740783717    2.21195010277684   -2.18263429294364
O         0.75565558572543    1.79341218777835   -0.81349793026988
C         2.28599207161244    2.20716062331954   -2.59290143234759
H         2.69127782631366    1.21229991842799   -2.43206823457769
H         2.41195581166739    2.51549775757234   -3.62582085942413
H         2.82858196799673    2.89328659866780   -1.94828538814753
C         0.25016691014058    3.62577341192371   -2.32324494492428
H        -0.74593897655312    3.70251909376095   -1.90210432966149
H         0.89861280116153    4.31098681128316   -1.78515203987574
H         0.22783525625100    3.91028129229795   -3.37088228848306
B         1.55502674307339    0.66925549184272    1.83734262798356
O         2.91882221449671    0.65250423821388    2.02884680411632
C         3.35385191664037    1.93655731806063    2.48204420724053
C         4.51682504921074    1.79848965711888    3.46097825908242
H         4.25911004172328    1.14315021148555    4.28568463201555
H         5.36927884110809    1.37050472346593    2.94206665833548
H         4.79104810153298    2.77690324094469    3.84271332905792
C         3.80869961720739    2.67255852237077    1.21608827115039
H         4.20551991008724    3.65858681018888    1.42855426868142
H         4.57424076485572    2.06770417316721    0.73756893591534
H         2.96359784840502    2.72486199034545    0.53517302183032
C         2.04634115248358    2.52835177144545    3.08833156764170
O         1.02713668234732    1.82222447834187    2.36800794632103
C         1.87942377043909    4.03170091774931    2.90195820570192
H         1.83386192169413    4.27974988563736    1.84794665268902
H         0.95277490743988    4.35018417779729    3.36943072111091
H         2.71030637714881    4.55194034344026    3.36717990241756
C         1.86226455235503    2.15721379109834    4.56657532196240
H         1.98006241922761    1.08285108215683    4.68423531035604
H         2.56906346509028    2.68193094394228    5.19918104612848
H         0.85074517333452    2.41804933664513    4.86741483038444
B         2.27820000000000   -1.33089999999996    0.17410000000002
O         2.92721742968481   -2.53258234882408    0.41452478914277
C         4.26653983545378   -2.47163708319520   -0.09866502605332
C         5.17413956833369   -2.05997777300147    1.06835601817672
H         4.87049904518362   -1.07992734799299    1.42710583168772
H         5.04398721935246   -2.77539904396382    1.87528452445944
H         6.21706960181354   -2.04354151673481    0.76901699811571
C         4.70480537522835   -3.83765390469712   -0.61725564877812
H         4.74523840189444   -4.53037272651063    0.21745674076519
H         5.69268001810266   -3.75714548131610   -1.05902528452231
H         4.00924619948532   -4.22738810675292   -1.35097379752058
C         4.15264443512016   -1.34960434728453   -1.17277998305125
O         3.04310464572070   -0.57759967999691   -0.68796328050154
C         5.39340941937569   -0.47536388828931   -1.32575587266392
H         6.24104113920901   -1.09055956233021   -1.61032785564530
H         5.21612164349876    0.26388662174905   -2.10046914187574
H         5.61538884703944    0.04613188628910   -0.40271162598271
C         3.74046741544482   -1.89524071228478   -2.54701350375600
H         2.85263282357776   -2.51148959566154   -2.43922736696475
H         3.48754891446147   -1.05711988299166   -3.19042170663557
H         4.54415598663438   -2.46301091382002   -3.00241151598235
H        -3.39141587729850   -3.97694610557612   -2.56685922140115
H        -5.18571312080444    1.46346860627487    1.30399507577155
C         0.23589999999996   -1.68139999999998    2.96029999999998
C        -1.00736283647004   -2.11315664255362    3.40885968036026
C         1.30277941794186   -1.82322431403031    3.87938512234245
C        -1.21899793020993   -2.57011118105581    4.71349533377589
H        -1.85354420543361   -2.13533487040097    2.73515800007039
C         1.06398080983317   -2.22464639337173    5.20906557005691
C         2.70340573393051   -1.68968746536091    3.63399353875114
C        -0.19433785763222   -2.61796849812207    5.63551893365191
H        -2.19839750910247   -2.93305375488973    4.99592670886054
S         2.54337535189566   -2.31645894158518    6.13639209212816
C         3.46768090627404   -1.90751661635013    4.71813427638640
H         3.07955195823872   -1.45743639208164    2.66219850266233
H        -0.34251394962427   -2.99424154956004    6.63650707176055
H         4.53674931637021   -1.86667773498886    4.79365139796772
99
 energy: -143.967426527510 gnorm: 0.037537929383 xtb: 6.4.1 (1a32961)
N        -0.92725388923856   -2.09569299108766   -0.27716006560637
C        -2.20611668694501   -1.68744942547910   -0.37176544013096
C        -3.11629304625770   -2.35726657431745   -1.20068912768719
C        -2.70572162997258   -3.45351057051208   -1.92457409678505
C        -1.38113251816836   -3.87057782167031   -1.80637036648744
C        -0.54269982286001   -3.15654226407270   -0.97711636184409
H         0.49141036963681   -3.44587543258644   -0.85314945565346
H        -1.01817198401318   -4.72885535051489   -2.34566354871348
H        -4.13630989546173   -2.02109669507483   -1.28016621428117
C        -2.57175099201197   -0.52836824794465    0.42697900282356
N        -1.58352679648922    0.04771681825735    1.14385837270339
C        -1.87838708481275    1.10744128538467    1.89001027660904
C        -3.14365689790783    1.64870547139507    1.98736496533825
C        -4.17552218382454    1.06193859627663    1.25832698993186
C        -3.88000522784042   -0.02774422282004    0.47028604386434
H        -4.66357096977128   -0.49639991344167   -0.10034959741465
H        -3.32401230001706    2.49996210135803    2.62149367461774
H        -1.04884219953793    1.53820335245569    2.42814840563968
Ir        0.42150000000000   -0.81650000000000    0.91330000000000
H         0.87260000000000   -2.23030000000000    1.54050000000000
B         0.47412765547490    0.46546551366855   -0.72773268134659
O         0.09967057723547   -0.00110118675690   -1.97993023805304
C        -0.02726034637041    1.10154274509707   -2.88101652925579
C         0.47036168238477    0.72816043571408   -4.27585236460316
H         1.48072995144360    0.33611753800486   -4.24278513680943
H         0.44068460122349    1.60641790901996   -4.91506529937969
H        -0.17805261163953   -0.03591834082832   -4.69607974502969
C        -1.52747948766590    1.42946730100130   -2.95871716968429
H        -1.71947908253188    2.23550075453805   -3.65927662664104
H        -2.05812190892564    0.53774112066910   -3.28494864096578
H        -1.89461131530668    1.69878388935589   -1.97058373032763
C         0.79478947708814    2.22027214345894   -2.16701756782967
O         0.75454037167423    1.80660204802650   -0.79858305519543
C         2.27073664492842    2.21909445229672   -2.58812283691361
H         2.68246562282241    1.22770014209416   -2.41964571634150
H         2.38602867233362    2.51705478236465   -3.62564023167941
H         2.81450193063983    2.91596811855563   -1.95522075476805
C         0.23150629017364    3.63265232369902   -2.31201972285170
H        -0.76150394106588    3.71127952383757   -1.88265693218400
H         0.88387602486783    4.32511528999554   -1.78676392255503
H         0.19847218896855    3.90679885214864   -3.36274233844474
B         1.55397911691481    0.67842717628855    1.83512457188097
O         2.92107393360078    0.67863815455609    1.98980964639564
C         3.35213885203647    1.95443635432864    2.46831666835973
C         4.51468949347237    1.79815957831670    3.44681739417539
H         4.25665460397985    1.12402378435393    4.25709803293883