18
 energy: -31.317171611952 gnorm: 0.058459005203 xtb: 6.4.1 (1a32961)
C         0.91391000000000    1.44882000000000   -0.00074000000000
C        -0.27191000000000    0.71111000000000   -0.00027000000000
C        -0.30277000000000   -0.68014000000000   -0.00021000000000
N        -1.59588000000000   -1.13902000000000    0.00024000000000
C        -2.35744000000000   -0.06467000000000    0.00088000000000
N        -1.59383000000000    1.07733000000000    0.00051000000000
C        -3.83899000000000   -0.02716000000000    0.00188000000000
C         0.90497000000000   -1.39618000000000   -0.00070000000000
C         2.10955000000000   -0.68103000000000   -0.00121000000000
C         2.10059000000000    0.71188000000000   -0.00119000000000
F         3.26867000000000    1.36886000000000   -0.00169000000000
H         0.93114000000000    2.53143000000000   -0.00059000000000
H        -1.94733000000000    2.02303000000000    0.00087000000000
H        -4.24941000000000   -1.04170000000000    0.00259000000000
H        -4.21331000000000    0.49033000000000   -0.88682000000000
H        -4.21218000000000    0.49108000000000    0.89063000000000
H         0.89409000000000   -2.48044000000000   -0.00050000000000
H         3.05822000000000   -1.20920000000000   -0.00158000000000
18
 energy: -31.319677024115 gnorm: 0.023361260413 xtb: 6.4.1 (1a32961)
C         0.90295126997784    1.44946263637864   -0.00067614411996
C        -0.27599803123561    0.71909661878366   -0.00016363519889
C        -0.29721664629673   -0.68863425019973   -0.00020728297021
N        -1.59371710591210   -1.13578786297759    0.00050752975208
C        -2.34182902322126   -0.06139588498594    0.00096089554345
N        -1.59491948888911    1.08906949411556    0.00056824153046
C        -3.82094794223946   -0.02833484974736    0.00182637742023
C         0.90083751835396   -1.40286285994883   -0.00073013581574
C         2.08489571985272   -0.68738627069897   -0.00121911453711
C         2.07058903433126    0.70588269849357   -0.00121446704025
F         3.24937174773983    1.36423585249146   -0.00170656662697
H         0.92782367240285    2.52790609067935   -0.00061578171473
H        -1.95236641525044    2.03131198627694    0.00085046562216
H        -4.21037299028333   -1.04444512720847    0.00253744061968
H        -4.19156646687875    0.49057047889506   -0.88293628416143
H        -4.19050637336410    0.49140855373431    0.88654045833095
H         0.89772208587046   -2.48126120542183   -0.00062744562083
H         3.03333943504197   -1.20450609865984   -0.00159455101288
18
 energy: -31.320046906701 gnorm: 0.005692980806 xtb: 6.4.1 (1a32961)
C         0.89967045080255    1.45057364570714   -0.00066936253889
C        -0.27904680499590    0.72463140244530   -0.00011433141015
C        -0.29569747220743   -0.69217637281698   -0.00011960424462
N        -1.59608041387037   -1.13022220298424    0.00057051492791
C        -2.33570011689131   -0.05770104430710    0.00102054205248
N        -1.59615314528588    1.09625467169839    0.00061061399621
C        -3.81559311205328   -0.03081912693354    0.00181258652467
C         0.89761295277500   -1.40621117588221   -0.00067681126087
C         2.07614000464617   -0.69165999013556   -0.00121116757966
C         2.05734392853683    0.70154153841066   -0.00120030965362
F         3.24621779987397    1.35964085880106   -0.00174216535426
H         0.93058854234667    2.52760739885376   -0.00066961871765
H        -1.95499692991750    2.03647452093375    0.00085274151126
H        -4.19108433550096   -1.04896772561077    0.00246928640608
H        -4.18464551005414    0.48809228821945   -0.88154290762953
H        -4.18370434817788    0.48892842021340    0.88506544267800
H         0.89545874878826   -2.48266045260043   -0.00070572975667
H         3.02775976118520   -1.19899665401207   -0.00164971995068
18
 energy: -31.320075321323 gnorm: 0.002279984410 xtb: 6.4.1 (1a32961)
C         0.90039891295923    1.45138465603900   -0.00065526675973
C        -0.27974977025572    0.72660538989831   -0.00007739952552
C        -0.29591995798184   -0.69175833843496   -0.00008594195069
N        -1.59754318420697   -1.12776150327466    0.00063245151408
C        -2.33578475610584   -0.05577720555902    0.00104692151778
N        -1.59642142418211    1.09850377412861    0.00064010850015
C        -3.81669332709137   -0.03210510368891    0.00179711572221
C         0.89650903095128   -1.40655829080143   -0.00068373900880
C         2.07674105854208   -0.69288846352858   -0.00123074819579
C         2.05634511955901    0.69988807251791   -0.00120821286918
F         3.24890625260684    1.35730545830194   -0.00177263165243
H         0.93359588123458    2.52847349911809   -0.00067709623379
H        -1.95506987787398    2.03866401224416    0.00086113325267
H        -4.18773963245147   -1.05163400594839    0.00244139396145
H        -4.18660994929516    0.48574289172069   -0.88174199305521
H        -4.18573590390042    0.48658456312333    0.88520275506774
H         0.89280859251417   -2.48331282742777   -0.00070447522824
H         3.03005293497771   -1.19702657842831   -0.00168437505672
18
 energy: -31.320081774256 gnorm: 0.000761846965 xtb: 6.4.1 (1a32961)
C         0.90128783079241    1.45204132620432   -0.00064869832349
C        -0.27986816312810    0.72806484114916   -0.00005149228227
C        -0.29601955398673   -0.69052846560510   -0.00004546367232
N        -1.59809684829268   -1.12606445681269    0.00065961794143
C        -2.33626644421328   -0.05423772874884    0.00106682047891
N        -1.59631159682654    1.10002363933616    0.00066386719598
C        -3.81776719468010   -0.03316496438373    0.00178458415663
C         0.89570128624650   -1.40623771330075   -0.00066228604183
C         2.07760645066154   -0.69366165278140   -0.00123898055897
C         2.05631828716394    0.69866894456829   -0.00121968585268
F         3.25105182062161    1.35549605157348   -0.00181263828590
H         0.93618349640451    2.52918177900444   -0.00067633204389
H        -1.95459366374162    2.04041491432184    0.00087252004401
H        -4.18591757680150   -1.05383828239441    0.00240349791551
H        -4.18902195182737    0.48350676510219   -0.88196400744198
H        -4.18820811071149    0.48433023666074    0.88538758997599
H         0.89031887568544   -2.48332625101478   -0.00069241493933
H         3.03169305663348   -1.19633898287893   -0.00172649826578
18
 energy: -31.320082439582 gnorm: 0.000285913492 xtb: 6.4.1 (1a32961)
C         0.90168191232794    1.45234857607465   -0.00064402111467
C        -0.27975195129123    0.72875859918949   -0.00003725375818
C        -0.29598147468832   -0.68952568085574   -0.00003234782666
N        -1.59793197024198   -1.12539248753540    0.00067431393690
C        -2.33646205090204   -0.05351592199292    0.00107515057526
N        -1.59617964237814    1.10067200287372    0.00067488055706
C        -3.81789545888858   -0.03371060566832    0.00177638316794
C         0.89528837130168   -1.40590056038870   -0.00065852886800
C         2.07771695232861   -0.69397136410327   -0.00124675934428
C         2.05629857097418    0.69821469077327   -0.00122638563841
F         3.25150091699226    1.35486550412898   -0.00183719512772
H         0.93744587689652    2.52943201220914   -0.00067309095596
H        -1.95422798349601    2.04123995673292    0.00087976843702
H        -4.18480946877296   -1.05491942469508    0.00237909191152
H        -4.19001561888566    0.48234655587697   -0.88200592169536
H        -4.18922691153964    0.48314748790433    0.88541652358673
H         0.88893805040269   -2.48304560319421   -0.00067176306884
H         3.03170187986068   -1.19671373732983   -0.00174284477433
