110
 energy: -158.999622438410 gnorm: 0.095179488032 xtb: 6.4.1 (1a32961)
N        -0.96510000000000   -2.11530000000000   -0.24090000000000
C        -2.24700000000000   -1.69840000000000   -0.36220000000000
C        -3.14040000000000   -2.36820000000000   -1.21200000000000
C        -2.70220000000000   -3.47560000000000   -1.93050000000000
C        -1.37780000000000   -3.89880000000000   -1.78760000000000
C        -0.54290000000000   -3.18670000000000   -0.93510000000000
H         0.49810000000000   -3.45630000000000   -0.78940000000000
H        -0.99570000000000   -4.76030000000000   -2.32770000000000
H        -4.16499999999998   -2.02889999999998   -1.31830000000000
C        -2.62130000000000   -0.50950000000000    0.44100000000000
N        -1.62600000000000    0.07330000000000    1.16020000000000
C        -1.89680000000000    1.15240000000000    1.91690000000000
C        -3.17230000000000    1.70330000000000    1.99650000000000
C        -4.20510000000000    1.11740000000000    1.26270000000000
C        -3.92610000000000    0.00250000000000    0.47820000000000
H        -4.71960000000000   -0.46420000000000   -0.09520000000000
H        -3.34630000000000    2.57510000000000    2.62070000000000
H        -1.04450000000000    1.57420000000000    2.43690000000000
Ir        0.42150000000000   -0.81650000000000    0.91330000000000
H         0.87260000000000   -2.23030000000000    1.54050000000000
B         0.50670000000000    0.41560000000000   -0.81540000000000
O         0.19500000000000   -0.04700000000000   -2.09150000000000
C         0.00650000000000    1.10040000000000   -2.95430000000000
C         0.49020000000000    0.74740000000000   -4.35780000000000
H         1.51610000000000    0.37380000000000   -4.33700000000000
H         0.44730000000000    1.62240000000000   -5.01670000000000
H        -0.14740000000000   -0.03390000000000   -4.78430000000000
C        -1.50120000000000    1.39560000000000   -2.96670000000000
H        -1.75370000000000    2.21460000000000   -3.64850000000000
H        -2.03200000000000    0.49450000000000   -3.28930000000000
H        -1.85170000000000    1.65210000000000   -1.96220000000000
C         0.84230000000000    2.20670000000000   -2.22040000000000
O         0.75200000000000    1.78260000000000   -0.83690000000000
C         2.32930000000000    2.18620000000000   -2.59900000000000
H         2.74130000000000    1.18500000000000   -2.45750000000000
H         2.48870000000000    2.51300000000000   -3.63180000000000
H         2.87200000000000    2.86270000000000   -1.93200000000000
C         0.28440000000000    3.62290000000000   -2.33660000000000
H        -0.72650000000000    3.69040000000000   -1.92910000000000
H         0.92130000000000    4.31480000000000   -1.77610000000000
H         0.26430000000000    3.94810000000000   -3.38320000000000
B         1.56300000000000    0.60960000000000    1.84840000000000
O         2.92780000000000    0.55230000000000    2.15020000000000
C         3.36330000000000    1.88660000000000    2.50260000000000
C         4.53140000000000    1.78590000000000    3.47740000000000
H         4.27910000000000    1.16090000000000    4.33690000000000
H         5.39390000000000    1.33790000000000    2.97340000000000
H         4.82390000000000    2.77870000000000    3.83820000000000
C         3.79700000000000    2.56850000000000    1.19670000000000
H         4.20020000000000    3.57090000000000    1.37680000000000
H         4.56740000000000    1.95560000000000    0.72110000000000
H         2.95240000000000    2.63260000000000    0.50540000000000
C         2.05040000000000    2.50090000000000    3.09320000000000
O         1.03750000000000    1.81620000000000    2.31910000000000
C         1.89100000000000    4.00450000000000    2.88650000000000
H         1.87290000000000    4.25440000000000    1.82410000000000
H         0.94940000000000    4.34260000000000    3.33170000000000
H         2.71080000000000    4.55150000000000    3.36630000000000
C         1.82470000000000    2.13200000000000    4.56520000000000
H         1.92610000000000    1.05330000000000    4.71320000000000
H         2.52610000000000    2.65280000000000    5.22540000000000
H         0.80630000000000    2.41580000000000    4.84900000000000
B         2.27820000000000   -1.33090000000000    0.17410000000000
O         2.89460000000000   -2.57740000000000    0.38450000000000
C         4.26930000000000   -2.48200000000000   -0.07210000000000
C         5.10900000000000   -2.05380000000000    1.14010000000000
H         4.76350000000000   -1.08740000000000    1.51750000000000
H         4.98050000000000   -2.79470000000000    1.93590000000000
H         6.17420000000000   -1.99290000000000    0.89300000000000
C         4.71950000000000   -3.84660000000000   -0.58470000000000
H         4.75280000000000   -4.56130000000000    0.24420000000000
H         5.72330000000000   -3.78370000000000   -1.02010000000000
H         4.03500000000000   -4.23600000000000   -1.34170000000000
C         4.16440000000000   -1.36220000000000   -1.16300000000000
O         3.08520000000000   -0.55030000000000   -0.65400000000000
C         5.40720000000000   -0.48870000000000   -1.31550000000000
H         6.27320000000000   -1.09010000000000   -1.61530000000000
H         5.23300000000000    0.26930000000000   -2.08590000000000
H         5.64270000000000    0.02650000000000   -0.38240000000000
C         3.71800000000000   -1.89830000000000   -2.53110000000000
H         2.82530000000000   -2.52160000000000   -2.42740000000000
H         3.46090000000000   -1.05250000000000   -3.17550000000000
H         4.50570000000000   -2.48290000000000   -3.01790000000000
H        -3.38500000000000   -4.00130000000000   -2.59310000000000
H        -5.21400000000000    1.52080000000000    1.29960000000000
C         0.23590000000000   -1.68140000000000    2.96030000000000
C        -1.12647698637522   -2.11294517083492    3.21215111456823
C         1.14361939130708   -2.06470069356709    3.94863045469925
C        -2.44827768875510   -2.11824280304887    2.49659488488756
C        -1.45494241969500   -2.77389052090652    4.40380706159807
C         0.80542074890035   -2.78151148531189    5.09035422213982
H         2.18655299460906   -1.83525981471124    3.77509765761485
N        -3.49193791069831   -1.33745738667901    2.96940361394064
C        -3.02226987497516   -3.03198136278845    1.63024372759989
C        -0.50619394251475   -3.15299014144079    5.33296527147513
H        -2.48560277585166   -3.07874871449553    4.55643620415571
H         1.57514169478765   -3.10733858703169    5.77717803914161
C        -4.65381011323507   -1.60033275833306    2.28252670099295
H        -3.37318946134989   -0.54777308996003    3.58289122308816
C        -4.38962130181706   -2.67867719348202    1.41581451696238
H        -2.51580381635796   -3.83551430857449    1.12325146106857
H        -0.80450448428010   -3.75567941092189    6.18106450616036
C        -5.87122396655531   -0.90953178056027    2.23906590052110
C        -5.34305578453028   -3.00397485021108    0.43298625348977
C        -6.73758948787126   -1.17653395631118    1.19177124248804
H        -6.08403018403357   -0.09649412905507    2.91979529200713
C        -6.46324056937960   -2.20104063027931    0.28251422366125
H        -5.17017721230363   -3.80694247035095   -0.27145551450328
H        -7.61137257299009   -0.55343933463662    1.03623321903420
H        -7.12090622043486   -2.33865183763307   -0.56925632053022
110
 energy: -159.017919691566 gnorm: 0.069804210779 xtb: 6.4.1 (1a32961)
N        -0.94377271111248   -2.07638834076224   -0.28804985506275
C        -2.21106014276981   -1.64243520400353   -0.42598607621355
C        -3.10242397092986   -2.30968235998801   -1.27681352601203
C        -2.69008158885207   -3.44759350165488   -1.94679602637839
C        -1.37850261683599   -3.88440889848937   -1.78767163951412
C        -0.54613724138705   -3.16428616653391   -0.95199427269703
H         0.48392956802369   -3.45331436364491   -0.79131649545425
H        -1.00637941637604   -4.75316608249100   -2.31309462192722
H        -4.12157224335214   -1.97505743764385   -1.37816334984302
C        -2.57642239039766   -0.44729814516835    0.35893942865728
N        -1.59712883878472    0.11337345124154    1.10384776911442
C        -1.88615055884462    1.15918257022604    1.88239532919592
C        -3.15442467283209    1.71129219287179    1.96666580878138
C        -4.16929426744710    1.15615349297374    1.20107936901293
C        -3.87794673580798    0.06206009134638    0.39917416257429
H        -4.67196278066466   -0.41033582128613   -0.15735315623004
H        -3.33862772723234    2.55853625244555    2.61414882514538
H        -1.04931495235574    1.56220555576869    2.43351301667336
Ir        0.42150000000000   -0.81650000000000    0.91330000000000
H         0.87260000000000   -2.23030000000000    1.54050000000000
B         0.49483389246497    0.41991896058760   -0.79697290356039
O         0.18315420774719   -0.03506434978979   -2.07203611163665
C         0.01524509567900    1.09953563893799   -2.94791733838937
C         0.49514803228602    0.75112620147123   -4.35317796089973
H         1.51445095458065    0.37467055608649   -4.33084268745671
H         0.45100782685156    1.62615291214752   -5.00245215233610
H        -0.14273177951041   -0.02553181918932   -4.77425551828077
C        -1.49017530745840    1.40094278070159   -2.97118462187646
H        -1.73233495841718    2.21498090434504   -3.65303964028446
H        -2.02078952677699    0.50394966011232   -3.29114285334507
H        -1.83770221782524    1.65365521534964   -1.96903246552066
C         0.83855751959923    2.20719877900882   -2.21377926973928
O         0.75859585688733    1.77687666645873   -0.83796707589722
C         2.32301233647653    2.19048178704364   -2.59738295328327
H         2.72773889743759    1.19100758212198   -2.44935982482059
H         2.47869064829031    2.51388580163354   -3.62603724179944
H         2.86476701385185    2.86330547990929   -1.93320166773453
C         0.28717969924332    3.62430609492145   -2.33740671976148
H        -0.71724274613181    3.69195996723992   -1.92708086792336
H         0.92512280101882    4.30763309162543   -1.77787247806436
H         0.27048424607560    3.94069007919811   -3.38059580784898
B         1.56319998629281    0.61008729495369    1.86737385837320
O         2.92414417756065    0.55979846470645    2.14576868419307
C         3.36279808614702    1.88298813901101    2.51262582614359
C         4.53201444393111    1.78504826200067    3.48458656253045
H         4.27818127398347    1.15785052351187    4.33524452474642
H         5.38707072008607    1.33889396715780    2.97824335398383
H         4.81647199611342    2.77494215076400    3.84064971322009
C         3.79929677783518    2.56898667242130    1.21238789284104
H         4.20145717201325    3.56490824797245    1.39460326803382
H         4.56362339777664    1.95717032744539    0.73582611697442
H         2.95292509082359    2.62318784428437    0.52863818486563
C         2.05270015457918    2.50242807926332    3.09315861692836
O         1.04117774907761    1.80756289370852    2.33781131983828
C         1.89402343951765    4.00499716627509    2.89219544566712
H         1.87132582895182    4.24896083153516    1.83376042757629
H         0.95545486995495    4.33511128640920    3.33618229595840
H         2.71309592800739    4.54213720554199    3.36999101010089
C         1.82766152893816    2.13604160254780    4.56512454046516
H         1.92875965966495    1.06006409668016    4.70317280128741
H         2.52721094735771    2.65569698783945    5.21750355096898
H         0.81262692055974    2.41525063047357    4.84764932603736
B         2.27820000000000   -1.33090000000002    0.17410000000000
O         2.89974571871545   -2.56280808748475    0.39032312862782
C         4.26580048855875   -2.48471579615244   -0.07446101178356
C         5.10840026007447   -2.06059696021594    1.13418056821629
H         4.75336934373814   -1.10040128245909    1.50682537905922
H         4.97585517450718   -2.79674177175416    1.92648224459723
H         6.16700287404243   -2.00078127818983    0.88531914921571
C         4.71988258536968   -3.84757872626024   -0.58482580039032
H         4.74785236484137   -4.55370436698940    0.24402716168870
H         5.71833724080498   -3.77798550573562   -1.01607456463705
H         4.03494258773437   -4.23381183894068   -1.33516677203049
C         4.16764863272518   -1.36161270558244   -1.15564829690988
O         3.07739607072459   -0.56314138626828   -0.65832377549641
C         5.41141068854308   -0.49297188876126   -1.31170152395797
H         6.26831604982956   -1.09759949811186   -1.60801405775132
H         5.23385650516918    0.25977977782620   -2.07886764142868
H         5.63911879355937    0.02028935226626   -0.38170926943242
C         3.72832974904847   -1.89923473104495   -2.52469271224829
H         2.83545556118112   -2.51422867758924   -2.41766933812941
H         3.47129080499286   -1.05695827378383   -3.16610814426645
H         4.51635524824142   -2.47740055615703   -3.00474963863581
H        -3.37601625076885   -3.98324513941726   -2.59071471934629
H        -5.18192380218242    1.53427741884606    1.26456346474636
C         0.23590000000004   -1.68140000000006    2.96030000000003
C        -1.12580925710911   -2.12114506315531    3.23435736900889
C         1.15479043397337   -2.05107771789477    3.94528485758149
C        -2.45106260415931   -2.12815228430761    2.51206110132538
C        -1.43559926020142   -2.77595993156782    4.43079657307462
C         0.82929029591336   -2.76310625025936    5.09340206273892
H         2.19406722247057   -1.81552486679698    3.76629897101202
N        -3.48961295028779   -1.34257106133253    2.98698767616840
C        -3.01567663304323   -3.04318452853286    1.64597310851830
C        -0.47629811291674   -3.14136962732010    5.34818581627795
H        -2.46216521586215   -3.08517916098499    4.59256831726268
H         1.60508683711910   -3.07966362323937    5.77547493072555
C        -4.65038566556014   -1.60977122042485    2.30408838768531
H        -3.36673309374281   -0.55166013026186    3.59698463517426
C        -4.38630303876469   -2.69646169578115    1.43961054683655
H        -2.50483311889112   -3.84295638083091    1.14242772901740
H        -0.76201363646156   -3.74077762713713    6.20050174885508
C        -5.87023047424775   -0.92649483451416    2.26586790173806
C        -5.34267968360714   -3.02881219801698    0.46545191575849
C        -6.73569293653172   -1.20206250846244    1.22559919628446
H        -6.08044350034922   -0.11262281070190    2.94360924701713
C        -6.46083274013666   -2.23042193582182    0.31831790534086
H        -5.16581282100964   -3.82968803629992   -0.23817397558704
H        -7.61136171104094   -0.58433346881174    1.07148877593262
H        -7.12069651370771   -2.37286521292262   -0.52972968214849
110
 energy: -159.028959985900 gnorm: 0.060090866137 xtb: 6.4.1 (1a32961)
N        -0.92348176215297   -2.04429449308632   -0.32151123218474
C        -2.17943423989406   -1.59379317229878   -0.47845278381820
C        -3.07481841667816   -2.25950414900087   -1.32452875568971
C        -2.67848959803049   -3.40951205800707   -1.97331738194721
C        -1.37425465123555   -3.85964932771360   -1.80140029194599
C        -0.54320923261873   -3.13844543596905   -0.97203513412363
H         0.47696749157526   -3.44997653721953   -0.79637844628935
H        -1.01721191438443   -4.74777152520768   -2.29930604411750
H        -4.08550044947271   -1.91164382030141   -1.43679505592618
C        -2.54306636222909   -0.41101255257646    0.30655708858319
N        -1.57283558628413    0.12927272278825    1.07306131815216
C        -1.86964998255973    1.16739677675148    1.84597808799046
C        -3.13179381664200    1.72570873761073    1.92736549079671
C        -4.14007578497090    1.18498462837934    1.14560399994802
C        -3.83903734936324    0.10873576672470    0.32991268281361
H        -4.62703787485376   -0.35026547724536   -0.23964204138511
H        -3.32395241951873    2.54986808447324    2.59796765505008
H        -1.04739683007720    1.55150066986236    2.43065360239174
Ir        0.42150000000000   -0.81650000000000    0.91330000000000
H         0.87260000000000   -2.23030000000000    1.54050000000000
B         0.50862709310176    0.42647031223892   -0.78100061208327
O         0.17390019596024   -0.02386903493445   -2.05005689837901
C         0.02153288649307    1.09940058357557   -2.93383434231477
C         0.50383243191319    0.75167662905567   -4.33915791664972
H         1.51920043952287    0.37260609176242   -4.31885779733802
H         0.45849399625030    1.63033113256251   -4.97700814798094
H        -0.13699572053454   -0.01859746460348   -4.75946662089080
C        -1.48238949893771    1.40940773501371   -2.97375984791114
H        -1.70870164115607    2.22065850067673   -3.65823343523482
H        -2.01209462409637    0.51522916871584   -3.29511353117489
H        -1.83029293771776    1.66159886568831   -1.97422051436920
C         0.83957497800751    2.20776153959370   -2.20222959876670
O         0.76958191992095    1.77744466606315   -0.83336283898962
C         2.32225577439148    2.19561402075513   -2.59285587833147
H         2.72122516063473    1.19669075602850   -2.43925688198536
H         2.46924658567624    2.51477228826821   -3.62017983593545
H         2.86236827254604    2.86888035191666   -1.93228195083064
C         0.28867728801332    3.62477816958702   -2.33250460568907
H        -0.71208124463307    3.69670316515055   -1.92113727426202
H         0.93052205490171    4.30302126231778   -1.77744500941980
H         0.27621875251932    3.92863879001101   -3.37530451113933
B         1.56599408133487    0.61189734833722    1.88296755296269
O         2.92087568381232    0.56496837368070    2.14505246988151
C         3.36139850060313    1.87819522078408    2.52322985558553
C         4.52941332127530    1.78023270088658    3.49719207023628
H         4.27623680337991    1.15001658060384    4.34194926176230
H         5.38024753383275    1.33828336014874    2.98714287857723
H         4.80550360450213    2.76922793074869    3.84943155330575
C         3.80322826904714    2.57058569411433    1.22880826323841
H         4.20325844780709    3.56175734116190    1.41689499310773
H         4.56499068435313    1.95938160623820    0.75312034983645
H         2.95509950169306    2.61800176387798    0.55036107341598
C         2.05294024924835    2.49908553668858    3.09855586278042
O         1.04405160681753    1.79723421781730    2.35707465343084
C         1.89698447573082    4.00175049377317    2.89775635549130
H         1.87030013022353    4.24394582432950    1.84183663879156
H         0.96172840610507    4.32688427967916    3.34402544578620
H         2.71745112670627    4.52919146798220    3.37435726598301
C         1.83285881483104    2.13885547865250    4.57341596217914
H         1.93423136195130    1.06415460031875    4.70201394391728
H         2.53251501650717    2.65952807415793    5.21798141244652
H         0.81931270302667    2.41525212103386    4.85294100857482
B         2.27820000000000   -1.33090000000003    0.17410000000001
O         2.90112228960602   -2.55028430668600    0.39853726628798
C         4.25850635513104   -2.48546021802147   -0.07236134544431
C         5.10862653875182   -2.06730484157747    1.13243520596346
H         4.74667820753689   -1.11107605704620    1.50171747121927
H         4.97296251664700   -2.80249927179702    1.92075358995645
H         6.16183518052208   -2.00894933701531    0.87851478437172
C         4.71321068327696   -3.84800273126192   -0.58444200116775
H         4.73974400205512   -4.54752332880512    0.24543954050907
H         5.70845624761194   -3.76998177483471   -1.01134899899566
H         4.02966459099152   -4.23403960453220   -1.33168124838134
C         4.16625752661088   -1.36211724407906   -1.14916984428967
O         3.06815046964723   -0.57329322853184   -0.66286273293182
C         5.41261317673862   -0.49702596075783   -1.30160473132301
H         6.26067988043011   -1.10865158693516   -1.59380771767030
H         5.23601332212079    0.25042177660819   -2.06941265343039
H         5.63647826873620    0.01581817046153   -0.37390004710018
C         3.73940464774266   -1.90159574295169   -2.52193603116377
H         2.84644080159083   -2.51136267297598   -2.41257369192332
H         3.48569511133811   -1.06012324109327   -3.16148311523784
H         4.53138851826700   -2.47550216200299   -2.99124071752347
H        -3.36891405374231   -3.95338950300547   -2.60065321394718
H        -5.14922474843530    1.56117672389441    1.20277960830754
C         0.23590000000009   -1.68140000000011    2.96030000000005
C        -1.11701195335887   -2.12940514781929    3.25928177506998
C         1.17277305734102   -2.02844269463712    3.93780656705769
C        -2.43191917774561   -2.12372040262744    2.51647512873658
C        -1.40527565721391   -2.77618679112279    4.46267287518567
C         0.86852469210742   -2.73140400277049    5.09741411982357
H         2.20690207717651   -1.78239949540166    3.74710321940541
N        -3.46387944507985   -1.32855978296682    2.98603766555310
C        -2.98292714744522   -3.03109624872932    1.64190439379476
C        -0.42947726628762   -3.12028304357496    5.37029931574042
H        -2.42752802580008   -3.08995814487860    4.63968013423315
H         1.65552090235901   -3.03093142912194    5.77366577103215
C        -4.62083748664870   -1.59807225710595    2.30498771957962
H        -3.34155297118538   -0.54817590907472    3.60872067415844
C        -4.35266209278077   -2.68400010709494    1.43556208279795
H        -2.47170006344551   -3.83689825817512    1.15197743002597
H        -0.69549211900392   -3.71317135858105    6.23298842409998
C        -5.84152777354854   -0.92266093629436    2.27428452603915
C        -5.31438569983473   -3.03318360794534    0.47681013717462
C        -6.72232059205906   -1.22669381398153    1.25724317327193
H        -6.06028688999914   -0.12342735772703    2.96627993121404
C        -6.45043829343431   -2.26134798381279    0.35461294222499
H        -5.14235779608525   -3.84907370858723   -0.20996353517396
H        -7.61805869380376   -0.63429684905827    1.12299934072736
H        -7.13246988106021   -2.42918585442366   -0.47069589716723
110
 energy: -159.037574661237 gnorm: 0.054526455410 xtb: 6.4.1 (1a32961)
N        -0.90238036642855   -2.01802447190833   -0.35084364420247
C        -2.14992660642445   -1.54828698814179   -0.53074279466336
C        -3.04863091089876   -2.20811712378240   -1.37841748569424
C        -2.66649652900585   -3.37282758398570   -2.00745280820182
C        -1.36901082273870   -3.84229674259743   -1.81629282235942
C        -0.53420438505394   -3.12209734641549   -0.98975632489384
H         0.48003588939250   -3.44935130521047   -0.80649613019755
H        -1.02462391866842   -4.74613203089025   -2.29343228480998
H        -4.05091043335578   -1.83883547486497   -1.50866834272023
C        -2.51059930499287   -0.36830948474024    0.24707747601698
N        -1.54762775440418    0.14866532189408    1.04268851377592
C        -1.85253268225180    1.17597725794144    1.82618847097766
C        -3.11076244745368    1.74377097814531    1.89411885673701
C        -4.11242110056601    1.22288650277277    1.08401566147485
C        -3.80291353253394    0.16252050680072    0.25357894269475
H        -4.58476854232186   -0.28377675599150   -0.33534776537401
H        -3.30797582359139    2.55416700514930    2.57752458378149
H        -1.03997098773875    1.55250322159354    2.42813430403215
Ir        0.42149999999999   -0.81650000000000    0.91330000000000
H         0.87260000000000   -2.23030000000000    1.54050000000000
B         0.50751101268296    0.44055817174690   -0.76506397676654
O         0.16615262072444   -0.01384095459033   -2.03099939044137
C         0.02550275882998    1.10194577474406   -2.91851433258683
C         0.51451801949762    0.75067609774804   -4.32186253875821
H         1.52837426678269    0.36776857549758   -4.30127890109374
H         0.47210190830299    1.63330031337220   -4.95390740677290
H        -0.13001261208705   -0.01482844303119   -4.74506914836514
C        -1.47737603887339    1.42006379183356   -2.97518835570303
H        -1.68786159088892    2.23109188052116   -3.66417106965411
H        -2.00707268267305    0.52752003907815   -3.30081895440431
H        -1.83238294321253    1.67601234454144   -1.97931715447623
C         0.84391447102625    2.21083779268370   -2.18811843081929
O         0.78188555005105    1.78581145382890   -0.82185822454893
C         2.32540866812022    2.20028980584955   -2.58668552102279
H         2.72341202001057    1.20161671845175   -2.42950036798823
H         2.46422316964206    2.51521465516406   -3.61584865050225
H         2.86557877377445    2.87754828720716   -1.93063057147035
C         0.29205827243421    3.62790628907096   -2.32407119559159
H        -0.70817038831576    3.70407600139769   -1.91244408453081
H         0.93734042444494    4.30716968072275   -1.77461442379333
H         0.28032700517429    3.92107871893299   -3.36954407814681
B         1.56777393499231    0.60949983397241    1.89726096057595
O         2.92061547875576    0.56427409731414    2.14606483730959
C         3.36080603693079    1.87196721899845    2.53344868154396
C         4.52691269898428    1.77219045040635    3.51124059619095
H         4.27440853152504    1.13830567450728    4.35329405192655
H         5.37910591453872    1.33534634090996    2.99928047683047
H         4.79672600313532    2.76195330193228    3.86506001773006
C         3.80775595594749    2.57211643994742    1.24407575447824
H         4.20538325069495    3.56205630400305    1.43987126053796
H         4.57153711714784    1.96277264011385    0.76937239727516
H         2.95994078317436    2.61935154925018    0.56554913168389
C         2.05284672472263    2.49332816979248    3.10865392691218
O         1.04458317170659    1.78746710080395    2.37595171385500
C         1.89832649914012    3.99666509244266    2.90445237574763
H         1.86841179486047    4.23890722675456    1.84859356885063
H         0.96551200493019    4.32252953455090    3.35494324115440
H         2.72256601609170    4.51946461490164    3.37879235507358
C         1.83852266158684    2.13979590653338    4.58711329546788
H         1.94095938283401    1.06524018983148    4.71393295671043
H         2.54047641036464    2.66352486882040    5.22565909347611
H         0.82516634305873    2.41615857095612    4.86633074342735
B         2.27820000000001   -1.33090000000005    0.17410000000002
O         2.89990655276501   -2.54438871246794    0.40829497712234
C         4.25131165078017   -2.48623681492356   -0.06782066364816
C         5.10914827932432   -2.07287725134917    1.13433812908607
H         4.74695945825978   -1.11739539214054    1.50480276312897
H         4.97341211349000   -2.81042716314582    1.92016322353926
H         6.16026132993188   -2.01598033715413    0.87457371186091
C         4.70330761018782   -3.84997795157819   -0.58262659705934
H         4.73085369456845   -4.54797543661747    0.24823989236372
H         5.69823044234139   -3.76704346462667   -1.00839406723832
H         4.02033295210718   -4.23640258254036   -1.33006041095586
C         4.16376856903188   -1.36327433437680   -1.14492039079102
O         3.06120812946366   -0.57788716965581   -0.66852000767935
C         5.41263547511835   -0.49941094643569   -1.28972924650255
H         6.25734428312966   -1.11782521020562   -1.57645513669281
H         5.24158019663974    0.24561990285111   -2.06087272272724
H         5.63413122392443    0.01412368677052   -0.36196409811509
C         3.74975007560456   -1.90436590117470   -2.52191835765213
H         2.85634835488217   -2.51358205360829   -2.41610263173259
H         3.50208757529646   -1.06241119408634   -3.16308173149927
H         4.54763279777400   -2.47756981243438   -2.98063438905732
H        -3.36131458658589   -3.91783404801333   -2.62750327441739
H        -5.12089651940498    1.59987345881844    1.13235990436148
C         0.23590000000014   -1.68140000000018    2.96030000000008
C        -1.10146378496886   -2.13546271168135    3.28348638801273
C         1.19483015560493   -1.99966263568015    3.92726930445715
C        -2.40344254397646   -2.12100470249253    2.52944244412731
C        -1.36899499693289   -2.77177047383212    4.49527903183542
C         0.91559615646761   -2.68959906779630    5.10116220547885
H         2.22307464196981   -1.74143948088265    3.71930061466002
N        -3.42964753525575   -1.31359453225424    2.98542557669802
C        -2.94345787490811   -3.01814717660571    1.64220136793197
C        -0.37445771532368   -3.09124342046906    5.39474274027812
H        -2.38669514629047   -3.09231207624910    4.68801386665375
H         1.71632030248520   -2.96647790538947    5.77203008791547
C        -4.58278692190881   -1.58476044457786    2.30363534676045
H        -3.30967172572304   -0.54632186255481    3.62474742203363
C        -4.31157902337009   -2.66948065975775    1.43257479777134
H        -2.42985649280569   -3.82493233497151    1.15717006752742
H        -0.61749371165824   -3.67453318342282    6.27174125620636
C        -5.80836749867798   -0.92153367347532    2.28446283397078
C        -5.28187737339920   -3.04085754100879    0.49312051305423
C        -6.70722534569331   -1.25554757637817    1.29194691055961
H        -6.02915476887838   -0.12691887797952    2.98157223487688
C        -6.43754622320300   -2.29492846957973    0.39452159432620
H        -5.10736652081731   -3.86295686531555   -0.18582063583071
H        -7.62312596018962   -0.68872503004434    1.17823253771665
H        -7.14473232404517   -2.49265939805464   -0.40412380498720
110
 energy: -159.044694233462 gnorm: 0.047487085399 xtb: 6.4.1 (1a32961)
N        -0.88531054027024   -1.99972361612153   -0.37255822349974
C        -2.12568649515546   -1.51325597305114   -0.57341848176953