      -----------------------------------------------------------      
     |                   =====================                   |     
     |                           x T B                           |     
     |                   =====================                   |     
     |                         S. Grimme                         |     
     |          Mulliken Center for Theoretical Chemistry        |     
     |                    University of Bonn                     |     
      -----------------------------------------------------------      

   * xtb version 6.4.1 (1a32961) compiled by 'knkr256@seskscpg007.prim.scp' on 2021-10-19

   xtb is free software: you can redistribute it and/or modify it under
   the terms of the GNU Lesser General Public License as published by
   the Free Software Foundation, either version 3 of the License, or
   (at your option) any later version.
   
   xtb is distributed in the hope that it will be useful,
   but WITHOUT ANY WARRANTY; without even the implied warranty of
   MERCHANTABILITY or FITNESS FOR A PARTICULAR PURPOSE.  See the
   GNU Lesser General Public License for more details.
   
   Cite this work as:
   * C. Bannwarth, E. Caldeweyher, S. Ehlert, A. Hansen, P. Pracht,
     J. Seibert, S. Spicher, S. Grimme, WIREs Comput. Mol. Sci., 2020, 11,
     e01493. DOI: 10.1002/wcms.1493
   
   for GFN2-xTB:
   * C. Bannwarth, S. Ehlert and S. Grimme., J. Chem. Theory Comput., 2019,
     15, 1652-1671. DOI: 10.1021/acs.jctc.8b01176
   for GFN1-xTB:
   * S. Grimme, C. Bannwarth, P. Shushkov, J. Chem. Theory Comput., 2017,
     13, 1989-2009. DOI: 10.1021/acs.jctc.7b00118
   for GFN0-xTB:
   * P. Pracht, E. Caldeweyher, S. Ehlert, S. Grimme, ChemRxiv, 2019, preprint.
     DOI: 10.26434/chemrxiv.8326202.v1
   for GFN-FF:
   * S. Spicher and S. Grimme, Angew. Chem. Int. Ed., 2020, 59, 15665-15673.
     DOI: 10.1002/anie.202004239
   
   for ALPB and GBSA implicit solvation:
   * S. Ehlert, M. Stahn, S. Spicher, S. Grimme, J. Chem. Theory Comput.,
     2021, 17, 4250-4261. DOI: 10.1021/acs.jctc.1c00471
   
   for DFT-D4:
   * E. Caldeweyher, C. Bannwarth and S. Grimme, J. Chem. Phys., 2017,
     147, 034112. DOI: 10.1063/1.4993215
   * E. Caldeweyher, S. Ehlert, A. Hansen, H. Neugebauer, S. Spicher,
     C. Bannwarth and S. Grimme, J. Chem. Phys., 2019, 150, 154122.
     DOI: 10.1063/1.5090222
   * E. Caldeweyher, J.-M. Mewes, S. Ehlert and S. Grimme, Phys. Chem. Chem. Phys.
     2020, 22, 8499-8512. DOI: 10.1039/D0CP00502A
   
   for sTDA-xTB:
   * S. Grimme and C. Bannwarth, J. Chem. Phys., 2016, 145, 054103.
     DOI: 10.1063/1.4959605
   
   in the mass-spec context:
   * V. Asgeirsson, C. Bauer and S. Grimme, Chem. Sci., 2017, 8, 4879.
     DOI: 10.1039/c7sc00601b
   * J. Koopman and S. Grimme, ACS Omega 2019, 4, 12, 15120-15133.
     DOI: 10.1021/acsomega.9b02011
   
   for metadynamics refer to:
   * S. Grimme, J. Chem. Theory Comput., 2019, 155, 2847-2862
     DOI: 10.1021/acs.jctc.9b00143
   
   for SPH calculations refer to:
   * S. Spicher and S. Grimme, J. Chem. Theory Comput., 2021, 17, 1701-1714
     DOI: 10.1021/acs.jctc.0c01306
   
   with help from (in alphabetical order)
   P. Atkinson, C. Bannwarth, F. Bohle, G. Brandenburg, E. Caldeweyher
   M. Checinski, S. Dohm, S. Ehlert, S. Ehrlich, I. Gerasimov, J. Koopman
   C. Lavigne, S. Lehtola, F. März, M. Müller, F. Musil, H. Neugebauer
   J. Pisarek, C. Plett, P. Pracht, J. Seibert, P. Shushkov, S. Spicher
   M. Stahn, M. Steiner, T. Strunk, J. Stückrath, T. Rose, and J. Unsleber
   
 * started run on 2022/01/14 at 15:25:52.415     

           -------------------------------------------------
          |                Calculation Setup                |
           -------------------------------------------------

          program call               : xtb xtbopt.xyz --sp --alpb thf -P 6
          hostname                   : seskscpg007.prim.scp
          coordinate file            : xtbopt.xyz
          omp threads                :                     6
          number of atoms            :                    96
          number of electrons        :                   262
          charge                     :                     0
          spin                       :                   0.0
          first test random number   :      0.86566931408918

   ID    Z sym.   atoms
    1    7 N      1, 11
    2    6 C      2-6, 10, 12-15, 23, 24, 28, 32, 34, 38, 44, 45, 49, 53, 55,
                  59, 65, 66, 70, 74, 76, 80, 86-89, 92, 93
    3    1 H      7-9, 16-18, 20, 25-27, 29-31, 35-37, 39-41, 46-48, 50-52,
                  56-58, 60-62, 67-69, 71-73, 77-79, 81-85, 90, 94, 95
    4   77 Ir     19
    5    5 B      21, 42, 63
    6    8 O      22, 33, 43, 54, 64, 75
    7    9 F      91
    8   53 I      96

molecular fragmentation (1/2 indicates fragments):
111111111111111111111111111111111111111111111111111111111111111111111111
111111111111122222222222
# atoms in fragment 1/2:    85    11
 fragment masses (1/2) :      730.32      220.99
CMA distance (Bohr)    :  12.125
constraining FC (au)   :  0.0500

           -------------------------------------------------
          |                 G F N 2 - x T B                 |
           -------------------------------------------------

        Reference                      10.1021/acs.jctc.8b01176
      * Hamiltonian:
        H0-scaling (s, p, d)           1.850000    2.230000    2.230000
        zeta-weighting                 0.500000
      * Dispersion:
        s8                             2.700000
        a1                             0.520000
        a2                             5.000000
        s9                             5.000000
      * Repulsion:
        kExp                           1.500000    1.000000
        rExp                           1.000000
      * Coulomb:
        alpha                          2.000000
        third order                    shell-resolved
        anisotropic                    true
        a3                             3.000000
        a5                             4.000000
        cn-shift                       1.200000
        cn-exp                         4.000000
        max-rad                        5.000000

      * Solvation model:               ALPB
        Solvent                        thf
        Parameter file                 internal GFN2-xTB/ALPB
        Dielectric constant                7.6000E+00
        Reference state                gsolv [1 M gas/solution]
        Free energy shift                  5.3248E-03 Eh       3.3414E+00 kcal/mol
        Temperature                        2.9815E+02 K
        Density                            8.8300E-01 kg/L
        Solvent mass                       7.2106E+01 g/mol
        Interaction kernel             P16
        Born radius scaling (c1)           1.7311E+00
        Born radii integrator          GBOBC
        Born offset                        0.0000E+00 a0       0.0000E+00 AA
        H-bond correction              true
        Ion screening                  false
        Surface tension                    1.0000E-05 Eh       1.5569E+01 dyn/cm
        Grid points                               230 per atom
q/qsh data taken from xtbrestart
CAMM data taken from xtbrestart

          ...................................................
          :                      SETUP                      :
          :.................................................:
          :  # basis functions                 252          :
          :  # atomic orbitals                 250          :
          :  # shells                          146          :
          :  # electrons                       262          :
          :  max. iterations                   250          :
          :  Hamiltonian                  GFN2-xTB          :
          :  restarted?                       true          :
          :  GBSA solvation                   true          :
          :  PC potential                    false          :
          :  electronic temp.          300.0000000     K    :
          :  accuracy                    1.0000000          :
          :  -> integral cutoff          0.2500000E+02      :
          :  -> integral neglect         0.1000000E-07      :
          :  -> SCF convergence          0.1000000E-05 Eh   :
          :  -> wf. convergence          0.1000000E-03 e    :
          :  Broyden damping             0.4000000          :
          ...................................................

 iter      E             dE          RMSdq      gap      omega  full diag
   1   -145.7475023 -0.145748E+03  0.772E-05    0.91       0.0  T
   2   -145.7475023  0.247013E-09  0.859E-05    0.91     118.8  T
   3   -145.7475023 -0.291038E-09  0.584E-05    0.91     174.6  T

   *** convergence criteria satisfied after 3 iterations ***

         #    Occupation            Energy/Eh            Energy/eV
      -------------------------------------------------------------
         1        2.0000           -0.8061074             -21.9353
       ...           ...                  ...                  ...
       125        2.0000           -0.3837445             -10.4422
       126        2.0000           -0.3548705              -9.6565
       127        2.0000           -0.3381376              -9.2012
       128        2.0000           -0.3305648              -8.9951
       129        2.0000           -0.3262713              -8.8783
       130        2.0000           -0.3183484              -8.6627
       131        2.0000           -0.3161280              -8.6023 (HOMO)
       132                         -0.2826703              -7.6918 (LUMO)
       133                         -0.2544677              -6.9244
       134                         -0.2519239              -6.8552
       135                         -0.2371072              -6.4520
       136                         -0.2312510              -6.2927
       ...                                ...                  ...
       250                          3.7957340             103.2872
      -------------------------------------------------------------
                  HL-Gap            0.0334578 Eh            0.9104 eV
             Fermi-level           -0.2993553 Eh           -8.1459 eV

 SCC (total)                   0 d,  0 h,  0 min,  0.093 sec
 SCC setup                      ...        0 min,  0.003 sec (  3.307%)
 Dispersion                     ...        0 min,  0.002 sec (  2.430%)
 classical contributions        ...        0 min,  0.000 sec (  0.155%)
 integral evaluation            ...        0 min,  0.011 sec ( 12.202%)
 iterations                     ...        0 min,  0.036 sec ( 38.383%)
 molecular gradient             ...        0 min,  0.040 sec ( 42.710%)
 printout                       ...        0 min,  0.001 sec (  0.753%)

         :::::::::::::::::::::::::::::::::::::::::::::::::::::
         ::                     SUMMARY                     ::
         :::::::::::::::::::::::::::::::::::::::::::::::::::::
         :: total energy            -143.974273991508 Eh    ::
         :: total w/o Gsasa/hb      -143.932073188643 Eh    ::
         :: gradient norm              0.033732201276 Eh/a0 ::
         :: HOMO-LUMO gap              0.910432079145 eV    ::
         ::.................................................::
         :: SCC energy              -145.747502318472 Eh    ::
         :: -> isotropic ES            0.247825272579 Eh    ::
         :: -> anisotropic ES          0.008168691221 Eh    ::
         :: -> anisotropic XC          0.039716616647 Eh    ::
         :: -> dispersion             -0.136361614788 Eh    ::
         :: -> Gsolv                  -0.053579477053 Eh    ::
         ::    -> Gelec               -0.011378674187 Eh    ::
         ::    -> Gsasa               -0.044886966312 Eh    ::
         ::    -> Ghb                 -0.002638651998 Eh    ::
         ::    -> Gshift               0.005324815444 Eh    ::
         :: repulsion energy           1.765274721241 Eh    ::
         :: add. restraining           0.000000000000 Eh    ::
         :: total charge               0.000000000003 e     ::
         :::::::::::::::::::::::::::::::::::::::::::::::::::::

           -------------------------------------------------
          |                Property Printout                |
           -------------------------------------------------

    * Orbital Energies and Occupations

         #    Occupation            Energy/Eh            Energy/eV
      -------------------------------------------------------------
         1        2.0000           -0.8061074             -21.9353
       ...           ...                  ...                  ...
       119        2.0000           -0.4057405             -11.0408
       120        2.0000           -0.4038774             -10.9901
       121        2.0000           -0.3951058             -10.7514
       122        2.0000           -0.3921641             -10.6713
       123        2.0000           -0.3894225             -10.5967
       124        2.0000           -0.3861972             -10.5090
       125        2.0000           -0.3837445             -10.4422
       126        2.0000           -0.3548705              -9.6565
       127        2.0000           -0.3381376              -9.2012
       128        2.0000           -0.3305648              -8.9951
       129        2.0000           -0.3262713              -8.8783
       130        2.0000           -0.3183484              -8.6627
       131        2.0000           -0.3161280              -8.6023 (HOMO)
       132                         -0.2826703              -7.6918 (LUMO)
       133                         -0.2544677              -6.9244
       134                         -0.2519239              -6.8552
       135                         -0.2371072              -6.4520
       136                         -0.2312510              -6.2927
       137                         -0.2212408              -6.0203
       138                         -0.2107552              -5.7349
       139                         -0.1954973              -5.3198
       140                         -0.1592603              -4.3337
       141                         -0.1322347              -3.5983
       142                         -0.1257648              -3.4222
       ...                                ...                  ...
       250                          3.7957340             103.2872
      -------------------------------------------------------------
                  HL-Gap            0.0334578 Eh            0.9104 eV
             Fermi-level           -0.2993553 Eh           -8.1459 eV

     #   Z          covCN         q      C6AA      α(0)
     1   7 N        2.544    -0.122    23.679     7.227
     2   6 C        2.954     0.077    26.284     8.409
     3   6 C        2.918    -0.042    29.054     8.839
     4   6 C        2.924    -0.021    28.522     8.758
     5   6 C        2.915    -0.042    29.038     8.836
     6   6 C        2.892     0.048    26.914     8.506
     7   1 H        0.926     0.057     2.237     2.339
     8   1 H        0.926     0.060     2.197     2.318
     9   1 H        0.926     0.051     2.303     2.373
    10   6 C        2.952     0.073    26.372     8.423
    11   7 N        2.548    -0.129    23.824     7.249
    12   6 C        2.890     0.042    27.057     8.528
    13   6 C        2.915    -0.043    29.071     8.841
    14   6 C        2.923    -0.023    28.585     8.768
    15   6 C        2.918    -0.045    29.120     8.849
    16   1 H        0.926     0.051     2.304     2.374
    17   1 H        0.926     0.056     2.248     2.345
    18   1 H        0.926     0.077     2.008     2.216
    19  77 Ir       5.928    -0.144   386.790    36.369
    20   1 H        0.977     0.104     1.744     2.063
    21   5 B        2.637     0.404    15.975     6.746
    22   8 O        1.638    -0.404    20.927     6.175
    23   6 C        3.837     0.129    18.459     6.112
    24   6 C        3.755    -0.123    22.912     6.825
    25   1 H        0.925     0.055     2.262     2.352
    26   1 H        0.925     0.046     2.368     2.406
    27   1 H        0.925     0.053     2.280     2.361
    28   6 C        3.754    -0.111    22.682     6.791
    29   1 H        0.925     0.049     2.326     2.385
    30   1 H        0.925     0.044     2.397     2.421
    31   1 H        0.925     0.028     2.620     2.531
    32   6 C        3.844     0.131    18.434     6.107
    33   8 O        1.637    -0.404    20.945     6.178
    34   6 C        3.755    -0.123    22.915     6.826
    35   1 H        0.925     0.054     2.275     2.359
    36   1 H        0.925     0.047     2.358     2.401
    37   1 H        0.925     0.050     2.318     2.381
    38   6 C        3.754    -0.121    22.877     6.820
    39   1 H        0.925     0.047     2.360     2.402
    40   1 H        0.925     0.054     2.269     2.356
    41   1 H        0.925     0.047     2.359     2.402
    42   5 B        2.620     0.408    16.017     6.771
    43   8 O        1.637    -0.377    20.416     6.099
    44   6 C        3.835     0.129    18.467     6.114
    45   6 C        3.755    -0.125    22.954     6.832
    46   1 H        0.925     0.055     2.256     2.349
    47   1 H        0.925     0.055     2.259     2.351
    48   1 H        0.925     0.050     2.317     2.380
    49   6 C        3.755    -0.122    22.897     6.823
    50   1 H        0.925     0.050     2.323     2.383
    51   1 H        0.925     0.049     2.330     2.387
    52   1 H        0.925     0.052     2.298     2.370
    53   6 C        3.829     0.128    18.483     6.117
    54   8 O        1.637    -0.388    20.624     6.130
    55   6 C        3.755    -0.125    22.949     6.831
    56   1 H        0.925     0.053     2.279     2.361
    57   1 H        0.925     0.054     2.265     2.353
    58   1 H        0.925     0.049     2.329     2.387
    59   6 C        3.755    -0.120    22.863     6.818
    60   1 H        0.925     0.046     2.377     2.411
    61   1 H        0.925     0.051     2.307     2.375
    62   1 H        0.925     0.049     2.337     2.391
    63   5 B        2.631     0.403    16.015     6.760
    64   8 O        1.637    -0.379    20.452     6.105
    65   6 C        3.835     0.125    18.523     6.123
    66   6 C        3.755    -0.130    23.062     6.847
    67   1 H        0.925     0.059     2.209     2.324
    68   1 H        0.925     0.054     2.276     2.359
    69   1 H        0.925     0.051     2.309     2.376
    70   6 C        3.755    -0.129    23.039     6.844
    71   1 H        0.925     0.060     2.200     2.320
    72   1 H        0.925     0.051     2.301     2.372
    73   1 H        0.925     0.053     2.284     2.363
    74   6 C        3.831     0.127    18.503     6.120
    75   8 O        1.637    -0.375    20.388     6.095
    76   6 C        3.755    -0.125    22.959     6.832
    77   1 H        0.925     0.051     2.302     2.373
    78   1 H        0.925     0.054     2.266     2.354
    79   1 H        0.925     0.057     2.235     2.338
    80   6 C        3.755    -0.123    22.919     6.826
    81   1 H        0.925     0.042     2.422     2.434
    82   1 H        0.925     0.050     2.314     2.379
    83   1 H        0.925     0.056     2.251     2.346
    84   1 H        0.926     0.057     2.229     2.335
    85   1 H        0.926     0.055     2.263     2.352
    86   6 C        2.823    -0.050    29.239     8.860
    87   6 C        2.939    -0.032    28.789     8.800
    88   6 C        2.797     0.163    24.479     8.105
    89   6 C        3.039    -0.049    29.168     8.858
    90   1 H        0.926     0.050     2.314     2.379
    91   9 F        0.787    -0.247    11.736     4.047
    92   6 C        3.043    -0.059    29.416     8.896
    93   6 C        2.962     0.047    26.953     8.516
    94   1 H        0.926     0.058     2.228     2.334
    95   1 H        0.926     0.068     2.110     2.271
    96  53 I        1.214    -0.150   383.140    33.790

 Mol. C6AA /au·bohr⁶  :     109507.420785
 Mol. C8AA /au·bohr⁸  :    3241278.342536
 Mol. α(0) /au        :        516.433210


Wiberg/Mayer (AO) data.
largest (>0.10) Wiberg bond orders for each atom

 ---------------------------------------------------------------------------
     #   Z sym  total        # sym  WBO       # sym  WBO       # sym  WBO
 ---------------------------------------------------------------------------
     1   7 N    3.401 --     6 C    1.392     2 C    1.317    19 Ir   0.432
     2   6 C    3.979 --     3 C    1.353     1 N    1.317    10 C    1.087
     3   6 C    3.988 --     4 C    1.479     2 C    1.353     9 H    0.961
                             6 C    0.106
     4   6 C    3.985 --     3 C    1.479     5 C    1.389    84 H    0.968
     5   6 C    3.979 --     6 C    1.456     4 C    1.389     8 H    0.968
     6   6 C    3.977 --     5 C    1.456     1 N    1.392     7 H    0.957
                             3 C    0.106
     7   1 H    0.996 --     6 C    0.957
     8   1 H    0.995 --     5 C    0.968
     9   1 H    0.997 --     3 C    0.961
    10   6 C    3.978 --    15 C    1.357    11 N    1.308     2 C    1.087
    11   7 N    3.404 --    12 C    1.388    10 C    1.308    19 Ir   0.422
    12   6 C    3.973 --    13 C    1.454    11 N    1.388    18 H    0.947
                            15 C    0.105
    13   6 C    3.981 --    12 C    1.454    14 C    1.391    17 H    0.968
    14   6 C    3.982 --    15 C    1.474    13 C    1.391    85 H    0.968
    15   6 C    3.989 --    14 C    1.474    10 C    1.357    16 H    0.961
                            12 C    0.105
    16   1 H    0.997 --    15 C    0.961
    17   1 H    0.996 --    13 C    0.968
    18   1 H    0.994 --    12 C    0.947
    19  77 Ir   5.136 --    63 B    0.849    42 B    0.848    21 B    0.738
                            86 C    0.583    20 H    0.543     1 N    0.432
                            11 N    0.422
    20   1 H    0.987 --    19 Ir   0.543    86 C    0.344
    21   5 B    3.283 --    33 O    1.111    22 O    1.100    19 Ir   0.738
    22   8 O    2.199 --    21 B    1.100    23 C    0.940
    23   6 C    3.942 --    24 C    0.997    28 C    0.990    32 C    0.941
                            22 O    0.940
    24   6 C    3.993 --    23 C    0.997    26 H    0.983    27 H    0.983
                            25 H    0.983
    25   1 H    0.997 --    24 C    0.983
    26   1 H    0.997 --    24 C    0.983
    27   1 H    0.997 --    24 C    0.983
    28   6 C    3.996 --    23 C    0.990    31 H    0.985    29 H    0.984
                            30 H    0.984
    29   1 H    0.997 --    28 C    0.984
    30   1 H    0.998 --    28 C    0.984
    31   1 H    0.999 --    28 C    0.985
    32   6 C    3.939 --    38 C    0.997    34 C    0.991    23 C    0.941
                            33 O    0.937
    33   8 O    2.200 --    21 B    1.111    32 C    0.937
    34   6 C    3.993 --    32 C    0.991    36 H    0.983    37 H    0.982
                            35 H    0.981
    35   1 H    0.997 --    34 C    0.981
    36   1 H    0.997 --    34 C    0.983
    37   1 H    0.997 --    34 C    0.982
    38   6 C    3.994 --    32 C    0.997    41 H    0.984    39 H    0.983
                            40 H    0.983
    39   1 H    0.998 --    38 C    0.983
    40   1 H    0.997 --    38 C    0.983
    41   1 H    0.997 --    38 C    0.984
    42   5 B    3.335 --    43 O    1.136    54 O    1.100    19 Ir   0.848
    43   8 O    2.238 --    42 B    1.136    44 C    0.935
    44   6 C    3.935 --    45 C    0.996    49 C    0.991    53 C    0.938
                            43 O    0.935
    45   6 C    3.993 --    44 C    0.996    48 H    0.983    47 H    0.982
                            46 H    0.982
    46   1 H    0.997 --    45 C    0.982
    47   1 H    0.997 --    45 C    0.982
    48   1 H    0.996 --    45 C    0.983
    49   6 C    3.994 --    44 C    0.991    50 H    0.983    51 H    0.982
                            52 H    0.980
    50   1 H    0.997 --    49 C    0.983
    51   1 H    0.997 --    49 C    0.982
    52   1 H    0.997 --    49 C    0.980
    53   6 C    3.937 --    55 C    0.996    59 C    0.992    44 C    0.938
                            54 O    0.934
    54   8 O    2.221 --    42 B    1.100    53 C    0.934
    55   6 C    3.993 --    53 C    0.996    58 H    0.983    57 H    0.983
                            56 H    0.983
    56   1 H    0.997 --    55 C    0.983
    57   1 H    0.997 --    55 C    0.983
    58   1 H    0.996 --    55 C    0.983
    59   6 C    3.995 --    53 C    0.992    62 H    0.983    61 H    0.983
                            60 H    0.983
    60   1 H    0.998 --    59 C    0.983
    61   1 H    0.996 --    59 C    0.983
    62   1 H    0.997 --    59 C    0.983
    63   5 B    3.367 --    75 O    1.126    64 O    1.113    19 Ir   0.849
    64   8 O    2.228 --    63 B    1.113    65 C    0.936
    65   6 C    3.936 --    70 C    0.997    66 C    0.992    74 C    0.938
                            64 O    0.936
    66   6 C    3.992 --    65 C    0.992    69 H    0.983    68 H    0.982
                            67 H    0.979
    67   1 H    0.996 --    66 C    0.979
    68   1 H    0.997 --    66 C    0.982
    69   1 H    0.996 --    66 C    0.983
    70   6 C    3.992 --    65 C    0.997    72 H    0.983    73 H    0.982
                            71 H    0.982
    71   1 H    0.996 --    70 C    0.982
    72   1 H    0.996 --    70 C    0.983
    73   1 H    0.997 --    70 C    0.982
    74   6 C    3.934 --    76 C    0.996    80 C    0.991    65 C    0.938
                            75 O    0.934
    75   8 O    2.241 --    63 B    1.126    74 C    0.934
    76   6 C    3.992 --    74 C    0.996    77 H    0.983    78 H    0.982
                            79 H    0.982
    77   1 H    0.996 --    76 C    0.983
    78   1 H    0.997 --    76 C    0.982
    79   1 H    0.997 --    76 C    0.982
    80   6 C    3.995 --    74 C    0.991    81 H    0.984    83 H    0.983
                            82 H    0.983
    81   1 H    0.998 --    80 C    0.984
    82   1 H    0.997 --    80 C    0.983
    83   1 H    0.996 --    80 C    0.983
    84   1 H    0.996 --     4 C    0.968
    85   1 H    0.996 --    14 C    0.968
    86   6 C    3.930 --    87 C    1.376    88 C    1.344    19 Ir   0.583
                            20 H    0.344
    87   6 C    3.989 --    89 C    1.436    86 C    1.376    90 H    0.960
                            92 C    0.101
    88   6 C    3.870 --    92 C    1.404    86 C    1.344    91 F    0.931
    89   6 C    3.986 --    87 C    1.436    93 C    1.418    94 H    0.967
    90   1 H    0.997 --    87 C    0.960
    91   9 F    1.071 --    88 C    0.931
    92   6 C    3.983 --    93 C    1.413    88 C    1.404    95 H    0.964
                            87 C    0.101
    93   6 C    3.940 --    89 C    1.418    92 C    1.413    96 I    0.953
    94   1 H    0.996 --    89 C    0.967
    95   1 H    0.994 --    92 C    0.964
    96  53 I    1.054 --    93 C    0.953
 ---------------------------------------------------------------------------

Topologies differ in total number of bonds
Writing topology from bond orders to xtbtopo.mol

molecular dipole:
                 x           y           z       tot (Debye)
 q only:       -0.571       0.614      -2.502
   full:       -1.471       0.924      -3.471       9.865
molecular quadrupole (traceless):
                xx          xy          yy          xz          yz          zz
 q only:       23.547       3.628      10.159       1.015      21.668     -33.705
  q+dip:       34.429       3.195      17.606       9.960      31.219     -52.035
   full:       31.646       4.092      19.171       6.994      28.168     -50.817


           -------------------------------------------------
          | TOTAL ENERGY             -143.974273991508 Eh   |
          | GRADIENT NORM               0.033732201276 Eh/α |
          | HOMO-LUMO GAP               0.910432079145 eV   |
           -------------------------------------------------

------------------------------------------------------------------------
 * finished run on 2022/01/14 at 15:25:52.540     
------------------------------------------------------------------------
 total:
 * wall-time:     0 d,  0 h,  0 min,  0.124 sec
 *  cpu-time:     0 d,  0 h,  0 min,  0.724 sec
 * ratio c/w:     5.835 speedup
 SCF:
 * wall-time:     0 d,  0 h,  0 min,  0.094 sec
 *  cpu-time:     0 d,  0 h,  0 min,  0.564 sec
 * ratio c/w:     5.965 speedup

