11
 energy: -24.261120444321 gnorm: 0.059346363970 xtb: 6.4.1 (1a32961)
C         1.17439000000000    1.51900000000000    0.06241000000000
C         0.01847000000000    0.73989000000000    0.03652000000000
Cl       -1.51272000000000    1.52647000000000    0.08617000000000
C         0.17120000000000   -0.64117000000000   -0.02981000000000
Cl       -1.15763000000000   -1.73459000000000   -0.06010000000000
N         1.37143000000000   -1.27074000000000   -0.07471000000000
C         2.46857000000000   -0.48489000000000   -0.05057000000000
C         2.42177000000000    0.89899000000000    0.01871000000000
H         1.11052000000000    2.60274000000000    0.11630000000000
H         3.41791000000000   -1.01265000000000   -0.08933000000000
H         3.33653000000000    1.48219000000000    0.03760000000000
11
 energy: -24.263955431575 gnorm: 0.025029231239 xtb: 6.4.1 (1a32961)
C         1.18319494407581    1.52225326171006    0.06028267040510
C         0.03520321214159    0.73867779880880    0.03660863711324
Cl       -1.51902183262727    1.48216821459876    0.08862497019677
C         0.18977461331551   -0.63925986530456   -0.02863398110369
Cl       -1.16248348785155   -1.70316866705650   -0.06268400483449
N         1.37276873643880   -1.24466586530564   -0.07292758705530
C         2.46189112625154   -0.48258542714187   -0.04948608938165
C         2.42171360630244    0.89968291528244    0.01828129709978
H         1.10696929243671    2.59848680194463    0.11384669445123
H         3.39787489560319   -1.02331798803818   -0.08787287718462
H         3.33255489391322    1.47696882050206    0.03715027029362
11
 energy: -24.264417978656 gnorm: 0.005550307035 xtb: 6.4.1 (1a32961)
C         1.18821326893170    1.52518169070829    0.06013876185438
C         0.04346231185558    0.73923028210615    0.03641462684736
Cl       -1.52543685389745    1.45650153824034    0.09102696672535
C         0.19963674782033   -0.64237135195825   -0.03069571304990
Cl       -1.17290839044620   -1.68378365143826   -0.06328463655072
N         1.37338494016415   -1.23080683630396   -0.07242369363108
C         2.46221592280423   -0.48321314476727   -0.04844719771137
C         2.42462345590977    0.90092428125104    0.01809035127914
H         1.10161901856608    2.59809171873041    0.11233019894993
H         3.39183034664460   -1.03151203190405   -0.08590455933818
H         3.33379923164721    1.47699750533557    0.03594489462508
11
 energy: -24.264440684100 gnorm: 0.002870392239 xtb: 6.4.1 (1a32961)
C         1.18800194044991    1.52472373564983    0.05970162195281
C         0.04295596147154    0.73980176729308    0.03731789121755
Cl       -1.52577403532017    1.45727573134411    0.09176407315912
C         0.19938830756052   -0.64418758491118   -0.02969567804523
Cl       -1.17631768933198   -1.68276427252096   -0.06498340824786
N         1.37364356620711   -1.23120666831926   -0.07215289772485
C         2.46440450181559   -0.48359260654855   -0.04853660253777
C         2.42549061159159    0.90072309387255    0.01747101741242
H         1.10003980854118    2.59782089893818    0.11204641191770
H         3.39429368966314   -1.03150909353580   -0.08508212628817
H         3.33431333735157    1.47815499873800    0.03533969718428
11
 energy: -24.264446286242 gnorm: 0.000932456650 xtb: 6.4.1 (1a32961)
C         1.18766292462298    1.52418284084227    0.05975038865756
C         0.04260607177461    0.74039337660206    0.03668464154768
Cl       -1.52560341734955    1.45809650500590    0.09250031153928
C         0.19956637417688   -0.64540142839630   -0.03091145661045
Cl       -1.17817280075646   -1.68224518271423   -0.06459969570957
N         1.37363950492786   -1.23162756633130   -0.07217338274716
C         2.46575112998197   -0.48364065977592   -0.04789985292026
C         2.42590248243551    0.90028449457270    0.01774092059358
H         1.09918921984606    2.59751714278402    0.11204471404129
H         3.39562335983658   -1.03133826609948   -0.08491173493648
H         3.33427515050357    1.47901874351027    0.03496514654453
11
 energy: -24.264446791540 gnorm: 0.000393127642 xtb: 6.4.1 (1a32961)
C         1.18741446537278    1.52404971191271    0.05959774121761
C         0.04249042784146    0.74058211883106    0.03770801265184
Cl       -1.52549976784113    1.45802720887050    0.09222660820631
C         0.19992934914149   -0.64556150950761   -0.02951240335908
Cl       -1.17809732734103   -1.68203113981710   -0.06567794931095
N         1.37349866730634   -1.23176418307914   -0.07206260729176
C         2.46585446551909   -0.48337483343216   -0.04872574874460
C         2.42586503618620    0.90004986733462    0.01701168740648
H         1.09948469537254    2.59748739120956    0.11199128504654
H         3.39552402816569   -1.03143662393442   -0.08434416279195
H         3.33397596027659    1.47921199161198    0.03497753696954
