      -----------------------------------------------------------      
     |                   =====================                   |     
     |                           x T B                           |     
     |                   =====================                   |     
     |                         S. Grimme                         |     
     |          Mulliken Center for Theoretical Chemistry        |     
     |                    University of Bonn                     |     
      -----------------------------------------------------------      

   * xtb version 6.4.0 (f63f532) compiled by 'knkr256@seskscpg008.prim.scp' on 2021-04-09

   xtb is free software: you can redistribute it and/or modify it under
   the terms of the GNU Lesser General Public License as published by
   the Free Software Foundation, either version 3 of the License, or
   (at your option) any later version.
   
   xtb is distributed in the hope that it will be useful,
   but WITHOUT ANY WARRANTY; without even the implied warranty of
   MERCHANTABILITY or FITNESS FOR A PARTICULAR PURPOSE.  See the
   GNU Lesser General Public License for more details.
   
   Cite this work as:
   * C. Bannwarth, E. Caldeweyher, S. Ehlert, A. Hansen, P. Pracht,
     J. Seibert, S. Spicher, S. Grimme, WIREs Comput. Mol. Sci., 2020, 11,
     e01493. DOI: 10.1002/wcms.1493
   
   for GFN2-xTB:
   * C. Bannwarth, S. Ehlert and S. Grimme., J. Chem. Theory Comput., 2019,
     15, 1652-1671. DOI: 10.1021/acs.jctc.8b01176
   for GFN1-xTB:
   * S. Grimme, C. Bannwarth, P. Shushkov, J. Chem. Theory Comput., 2017,
     13, 1989-2009. DOI: 10.1021/acs.jctc.7b00118
   for GFN0-xTB:
   * P. Pracht, E. Caldeweyher, S. Ehlert, S. Grimme, ChemRxiv, 2019, preprint.
     DOI: 10.26434/chemrxiv.8326202.v1
   for GFN-FF:
   * S. Spicher and S. Grimme, Angew. Chem. Int. Ed., 2020, 59, 15665-15673.
     DOI: 10.1002/anie.202004239
   
   for DFT-D4:
   * E. Caldeweyher, C. Bannwarth and S. Grimme, J. Chem. Phys., 2017,
     147, 034112. DOI: 10.1063/1.4993215
   * E. Caldeweyher, S. Ehlert, A. Hansen, H. Neugebauer, S. Spicher,
     C. Bannwarth and S. Grimme, J. Chem. Phys., 2019, 150, 154122.
     DOI: 10.1063/1.5090222
   * E. Caldeweyher, J.-M. Mewes, S. Ehlert and S. Grimme, Phys. Chem. Chem. Phys.
     2020, 22, 8499-8512. DOI: 10.1039/D0CP00502A
   
   for sTDA-xTB:
   * S. Grimme and C. Bannwarth, J. Chem. Phys., 2016, 145, 054103.
     DOI: 10.1063/1.4959605
   
   in the mass-spec context:
   * V. Asgeirsson, C. Bauer and S. Grimme, Chem. Sci., 2017, 8, 4879.
     DOI: 10.1039/c7sc00601b
   * J. Koopman and S. Grimme, ACS Omega 2019, 4, 12, 15120-15133.
     DOI: 10.1021/acsomega.9b02011
   
   for metadynamics refer to:
   * S. Grimme, J. Chem. Theory Comput., 2019, 155, 2847-2862
     DOI: 10.1021/acs.jctc.9b00143
   
   for SPH calculations refer to:
   * S. Spicher and S. Grimme, J. Chem. Theory Comput., 2021, 17, 1701-1714
     DOI: 10.1021/acs.jctc.0c01306
   
   with help from (in alphabetical order)
   P. Atkinson, C. Bannwarth, F. Bohle, G. Brandenburg, E. Caldeweyher
   M. Checinski, S. Dohm, S. Ehlert, S. Ehrlich, I. Gerasimov, J. Koopman
   C. Lavinge, S. Lehtola, F. März, M. Müller, F. Musil, H. Neugebauer
   J. Pisarek, P. Pracht, J. Seibert, P. Shushkov, S. Spicher, M. Stahn
   T. Strunk, J. Stückrath, T. Rose, and J. Unsleber
   
 * started run on 2021/10/08 at 07:10:30.563     

           -------------------------------------------------
          |                Calculation Setup                |
           -------------------------------------------------

          program call               : xtb xtbopt.xyz --sp --alpb thf -P 6
          hostname                   : seskscpg010.prim.scp
          coordinate file            : xtbopt.xyz
          omp threads                :                     6
          number of atoms            :                    99
          number of electrons        :                   256
          charge                     :                     0
          spin                       :                   0.0
          first test random number   :      0.34923761695865

   ID    Z sym.   atoms
    1    7 N      1, 11
    2    6 C      2-6, 10, 12-15, 23, 24, 28, 32, 34, 38, 44, 45, 49, 53, 55,
                  59, 65, 66, 70, 74, 76, 80, 86-91, 96
    3    1 H      7-9, 16-18, 20, 25-27, 29-31, 35-37, 39-41, 46-48, 50-52,
                  56-58, 60-62, 67-69, 71-73, 77-79, 81-85, 92-95, 97-99
    4   77 Ir     19
    5    5 B      21, 42, 63
    6    8 O      22, 33, 43, 54, 64, 75

molecular fragmentation (1/2 indicates fragments):
111111111111111111111111111111111111111111111111111111111111111111111111
111111111111122222222222222
# atoms in fragment 1/2:    85    14
 fragment masses (1/2) :      730.32       91.13
CMA distance (Bohr)    :   8.468
constraining FC (au)   :  0.0500

           -------------------------------------------------
          |                 G F N 2 - x T B                 |
           -------------------------------------------------

        Reference                      10.1021/acs.jctc.8b01176
      * Hamiltonian:
        H0-scaling (s, p, d)           1.850000    2.230000    2.230000
        zeta-weighting                 0.500000
      * Dispersion:
        s8                             2.700000
        a1                             0.520000
        a2                             5.000000
        s9                             5.000000
      * Repulsion:
        kExp                           1.500000    1.000000
        rExp                           1.000000
      * Coulomb:
        alpha                          2.000000
        third order                    shell-resolved
        anisotropic                    true
        a3                             3.000000
        a5                             4.000000
        cn-shift                       1.200000
        cn-exp                         4.000000
        max-rad                        5.000000

      * Solvation model:               ALPB
        Solvent                        thf
        Parameter file                 internal GFN2-xTB/ALPB
        Dielectric constant                7.6000E+00
        Reference state                gsolv [1 M gas/solution]
        Free energy shift                  5.3248E-03 Eh       3.3414E+00 kcal/mol
        Temperature                        2.9815E+02 K
        Density                            8.8300E-01 kg/L
        Solvent mass                       7.2106E+01 g/mol
        Interaction kernel             P16
        Born radius scaling (c1)           1.7311E+00
        Born radii integrator          GBOBC
        Born offset                        0.0000E+00 a0       0.0000E+00 AA
        H-bond correction              true
        Ion screening                  false
        Surface tension                    1.0000E-05 Eh       1.5569E+01 dyn/cm
        Grid points                               230 per atom
q/qsh data taken from xtbrestart
CAMM data taken from xtbrestart

          ...................................................
          :                      SETUP                      :
          :.................................................:
          :  # basis functions                 246          :
          :  # atomic orbitals                 245          :
          :  # shells                          147          :
          :  # electrons                       256          :
          :  max. iterations                   250          :
          :  Hamiltonian                  GFN2-xTB          :
          :  restarted?                       true          :
          :  GBSA solvation                   true          :
          :  PC potential                    false          :
          :  electronic temp.          300.0000000     K    :
          :  accuracy                    1.0000000          :
          :  -> integral cutoff          0.2500000E+02      :
          :  -> integral neglect         0.1000000E-07      :
          :  -> SCF convergence          0.1000000E-05 Eh   :
          :  -> wf. convergence          0.1000000E-03 e    :
          :  Broyden damping             0.4000000          :
          ...................................................

 iter      E             dE          RMSdq      gap      omega  full diag
   1   -141.4297479 -0.141430E+03  0.497E-05    0.87       0.0  T
   2   -141.4297479  0.810530E-09  0.100E-04    0.87     100.3  T
   3   -141.4297479 -0.920323E-09  0.271E-05    0.87     370.5  T

   *** convergence criteria satisfied after 3 iterations ***

         #    Occupation            Energy/Eh            Energy/eV
      -------------------------------------------------------------
         1        2.0000           -0.6741868             -18.3456
       ...           ...                  ...                  ...
       122        2.0000           -0.3745928             -10.1932
       123        2.0000           -0.3463470              -9.4246
       124        2.0000           -0.3277663              -8.9190
       125        2.0000           -0.3185986              -8.6695
       126        2.0000           -0.3129345              -8.5154
       127        2.0000           -0.3067884              -8.3481
       128        2.0000           -0.3046539              -8.2901 (HOMO)
       129        0.0000           -0.2726815              -7.4200 (LUMO)
       130                         -0.2451111              -6.6698
       131                         -0.2424028              -6.5961
       132                         -0.2057894              -5.5998
       133                         -0.2024769              -5.5097
       ...                                ...                  ...
       245                          3.8896908             105.8439
      -------------------------------------------------------------
                  HL-Gap            0.0319724 Eh            0.8700 eV
             Fermi-level           -0.2886199 Eh           -7.8537 eV

 SCC (total)                   0 d,  0 h,  0 min,  0.107 sec
 SCC setup                      ...        0 min,  0.002 sec (  1.989%)
 Dispersion                     ...        0 min,  0.003 sec (  2.427%)
 classical contributions        ...        0 min,  0.000 sec (  0.146%)
 integral evaluation            ...        0 min,  0.027 sec ( 25.437%)
 iterations                     ...        0 min,  0.033 sec ( 30.500%)
 molecular gradient             ...        0 min,  0.041 sec ( 38.828%)
 printout                       ...        0 min,  0.001 sec (  0.615%)

         :::::::::::::::::::::::::::::::::::::::::::::::::::::
         ::                     SUMMARY                     ::
         :::::::::::::::::::::::::::::::::::::::::::::::::::::
         :: total energy            -139.594581232902 Eh    ::
         :: total w/o Gsasa/hb      -139.557098954732 Eh    ::
         :: gradient norm              0.028873416558 Eh/a0 ::
         :: HOMO-LUMO gap              0.870013873801 eV    ::
         ::.................................................::
         :: SCC energy              -141.429747896206 Eh    ::
         :: -> isotropic ES            0.235063521703 Eh    ::
         :: -> anisotropic ES          0.014499830564 Eh    ::
         :: -> anisotropic XC          0.049160767857 Eh    ::
         :: -> dispersion             -0.139228165826 Eh    ::
         :: -> Gsolv                  -0.046283010091 Eh    ::
         ::    -> Gelec               -0.008800731921 Eh    ::
         ::    -> Gsasa               -0.040544238218 Eh    ::
         ::    -> Ghb                 -0.002262855397 Eh    ::
         ::    -> Gshift               0.005324815444 Eh    ::
         :: repulsion energy           1.826541232808 Eh    ::
         :: add. restraining           0.000000000000 Eh    ::
         :: total charge               0.000000000009 e     ::
         :::::::::::::::::::::::::::::::::::::::::::::::::::::

           -------------------------------------------------
          |                Property Printout                |
           -------------------------------------------------

    * Orbital Energies and Occupations

         #    Occupation            Energy/Eh            Energy/eV
      -------------------------------------------------------------
         1        2.0000           -0.6741868             -18.3456
       ...           ...                  ...                  ...
       116        2.0000           -0.3933883             -10.7046
       117        2.0000           -0.3860865             -10.5059
       118        2.0000           -0.3846058             -10.4657
       119        2.0000           -0.3822397             -10.4013
       120        2.0000           -0.3810523             -10.3690
       121        2.0000           -0.3797176             -10.3326
       122        2.0000           -0.3745928             -10.1932
       123        2.0000           -0.3463470              -9.4246
       124        2.0000           -0.3277663              -8.9190
       125        2.0000           -0.3185986              -8.6695
       126        2.0000           -0.3129345              -8.5154
       127        2.0000           -0.3067884              -8.3481
       128        2.0000           -0.3046539              -8.2901 (HOMO)
       129        0.0000           -0.2726815              -7.4200 (LUMO)
       130                         -0.2451111              -6.6698
       131                         -0.2424028              -6.5961
       132                         -0.2057894              -5.5998
       133                         -0.2024769              -5.5097
       134                         -0.2005510              -5.4573
       135                         -0.1823259              -4.9613
       136                         -0.1468427              -3.9958
       137                         -0.1244427              -3.3863
       138                         -0.1233122              -3.3555
       139                         -0.1081976              -2.9442
       ...                                ...                  ...
       245                          3.8896908             105.8439
      -------------------------------------------------------------
                  HL-Gap            0.0319724 Eh            0.8700 eV
             Fermi-level           -0.2886199 Eh           -7.8537 eV

     #   Z          covCN         q      C6AA      α(0)
     1   7 N        2.524    -0.127    23.797     7.245
     2   6 C        2.954     0.080    26.220     8.399
     3   6 C        2.918    -0.042    29.036     8.836
     4   6 C        2.924    -0.023    28.570     8.766
     5   6 C        2.915    -0.044    29.102     8.846
     6   6 C        2.892     0.048    26.912     8.505
     7   1 H        0.926     0.049     2.336     2.390
     8   1 H        0.926     0.053     2.287     2.365
     9   1 H        0.926     0.044     2.400     2.423
    10   6 C        2.954     0.073    26.364     8.422
    11   7 N        2.573    -0.121    23.656     7.223
    12   6 C        2.890     0.044    27.012     8.521
    13   6 C        2.915    -0.046    29.138     8.852
    14   6 C        2.922    -0.026    28.649     8.778
    15   6 C        2.918    -0.046    29.142     8.852
    16   1 H        0.926     0.044     2.395     2.420
    17   1 H        0.926     0.049     2.331     2.388
    18   1 H        0.926     0.070     2.086     2.258
    19  77 Ir       5.931    -0.156   388.180    36.434
    20   1 H        0.977     0.084     1.931     2.171
    21   5 B        2.622     0.402    16.077     6.782
    22   8 O        1.638    -0.410    21.055     6.194
    23   6 C        3.834     0.131    18.441     6.110
    24   6 C        3.755    -0.120    22.862     6.818
    25   1 H        0.925     0.053     2.285     2.364
    26   1 H        0.925     0.045     2.389     2.417
    27   1 H        0.925     0.050     2.322     2.383
    28   6 C        3.754    -0.110    22.652     6.786
    29   1 H        0.925     0.047     2.357     2.401
    30   1 H        0.925     0.042     2.428     2.436
    31   1 H        0.925     0.029     2.597     2.520
    32   6 C        3.838     0.131    18.428     6.107
    33   8 O        1.637    -0.405    20.963     6.180
    34   6 C        3.755    -0.120    22.846     6.815
    35   1 H        0.925     0.051     2.309     2.376
    36   1 H        0.925     0.045     2.378     2.412
    37   1 H        0.925     0.048     2.350     2.397
    38   6 C        3.754    -0.119    22.831     6.813
    39   1 H        0.925     0.047     2.361     2.403
    40   1 H        0.925     0.052     2.299     2.371
    41   1 H        0.925     0.045     2.387     2.416
    42   5 B        2.623     0.406    16.017     6.768
    43   8 O        1.637    -0.382    20.521     6.115
    44   6 C        3.833     0.128    18.477     6.116
    45   6 C        3.755    -0.126    22.967     6.833
    46   1 H        0.925     0.054     2.275     2.359
    47   1 H        0.925     0.057     2.240     2.341
    48   1 H        0.925     0.049     2.334     2.389
    49   6 C        3.755    -0.121    22.875     6.820
    50   1 H        0.925     0.047     2.353     2.399
    51   1 H        0.925     0.044     2.395     2.420
    52   1 H        0.925     0.053     2.280     2.361
    53   6 C        3.831     0.128    18.490     6.118
    54   8 O        1.637    -0.384    20.545     6.118
    55   6 C        3.755    -0.123    22.917     6.826
    56   1 H        0.925     0.053     2.288     2.365
    57   1 H        0.925     0.053     2.280     2.362
    58   1 H        0.925     0.048     2.348     2.396
    59   6 C        3.755    -0.123    22.921     6.827
    60   1 H        0.925     0.045     2.379     2.412
    61   1 H        0.925     0.052     2.298     2.371
    62   1 H        0.925     0.051     2.314     2.379
    63   5 B        2.625     0.400    16.085     6.781
    64   8 O        1.638    -0.377    20.424     6.100
    65   6 C        3.832     0.125    18.523     6.123
    66   6 C        3.755    -0.128    23.011     6.840
    67   1 H        0.925     0.056     2.247     2.344
    68   1 H        0.925     0.054     2.270     2.356
    69   1 H        0.925     0.048     2.344     2.394
    70   6 C        3.755    -0.129    23.035     6.844
    71   1 H        0.925     0.060     2.194     2.317
    72   1 H        0.925     0.049     2.329     2.387
    73   1 H        0.925     0.052     2.292     2.367
    74   6 C        3.829     0.127    18.494     6.119
    75   8 O        1.637    -0.388    20.620     6.129
    76   6 C        3.755    -0.123    22.916     6.826
    77   1 H        0.925     0.050     2.322     2.383
    78   1 H        0.925     0.052     2.292     2.368
    79   1 H        0.925     0.053     2.277     2.360
    80   6 C        3.755    -0.122    22.891     6.822
    81   1 H        0.925     0.039     2.456     2.451
    82   1 H        0.925     0.050     2.323     2.383
    83   1 H        0.925     0.054     2.275     2.359
    84   1 H        0.926     0.050     2.324     2.384
    85   1 H        0.926     0.047     2.352     2.398
    86   6 C        2.831    -0.027    28.669     8.774
    87   6 C        2.968     0.014    27.687     8.631
    88   6 C        2.924    -0.040    28.996     8.831
    89   6 C        3.758    -0.108    22.609     6.779
    90   6 C        2.927    -0.048    29.202     8.862
    91   6 C        2.918    -0.040    28.999     8.831
    92   1 H        0.926     0.044     2.394     2.420
    93   1 H        0.925     0.049     2.336     2.390
    94   1 H        0.924     0.032     2.556     2.500
    95   1 H        0.925     0.042     2.418     2.432
    96   6 C        2.916    -0.044    29.100     8.846
    97   1 H        0.925     0.026     2.648     2.545
    98   1 H        0.925     0.025     2.660     2.551
    99   1 H        0.926     0.026     2.637     2.540

 Mol. C6AA /au·bohr⁶  :     102748.593214
 Mol. C8AA /au·bohr⁸  :    2733184.405061
 Mol. α(0) /au        :        497.453629


Wiberg/Mayer (AO) data.
largest (>0.10) Wiberg bond orders for each atom

 ---------------------------------------------------------------------------
     #   Z sym  total        # sym  WBO       # sym  WBO       # sym  WBO
 ---------------------------------------------------------------------------
     1   7 N    3.384 --     6 C    1.389     2 C    1.304    19 Ir   0.427
     2   6 C    3.979 --     3 C    1.351     1 N    1.304    10 C    1.093
     3   6 C    3.988 --     4 C    1.482     2 C    1.351     9 H    0.962
                             6 C    0.105
     4   6 C    3.984 --     3 C    1.482     5 C    1.382    84 H    0.969
     5   6 C    3.980 --     6 C    1.460     4 C    1.382     8 H    0.969
     6   6 C    3.979 --     5 C    1.460     1 N    1.389     7 H    0.957
                             3 C    0.105
     7   1 H    0.997 --     6 C    0.957
     8   1 H    0.996 --     5 C    0.969
     9   1 H    0.998 --     3 C    0.962
    10   6 C    3.979 --    15 C    1.355    11 N    1.298     2 C    1.093
    11   7 N    3.413 --    12 C    1.385    10 C    1.298    19 Ir   0.451
    12   6 C    3.975 --    13 C    1.458    11 N    1.385    18 H    0.951
                            15 C    0.104
    13   6 C    3.982 --    12 C    1.458    14 C    1.383    17 H    0.969
    14   6 C    3.982 --    15 C    1.478    13 C    1.383    85 H    0.969
    15   6 C    3.989 --    14 C    1.478    10 C    1.355    16 H    0.962
                            12 C    0.104
    16   1 H    0.998 --    15 C    0.962
    17   1 H    0.997 --    13 C    0.969
    18   1 H    0.995 --    12 C    0.951
    19  77 Ir   5.178 --    63 B    0.869    42 B    0.853    21 B    0.717
                            86 C    0.584    20 H    0.520    11 N    0.451
                             1 N    0.427
    20   1 H    0.990 --    19 Ir   0.520    86 C    0.357
    21   5 B    3.267 --    33 O    1.109    22 O    1.089    19 Ir   0.717
    22   8 O    2.189 --    21 B    1.089    23 C    0.943
    23   6 C    3.944 --    24 C    0.996    28 C    0.990    22 O    0.943
                            32 C    0.941
    24   6 C    3.994 --    23 C    0.996    26 H    0.984    27 H    0.983
                            25 H    0.983
    25   1 H    0.997 --    24 C    0.983
    26   1 H    0.997 --    24 C    0.984
    27   1 H    0.997 --    24 C    0.983
    28   6 C    3.997 --    23 C    0.990    31 H    0.985    29 H    0.984
                            30 H    0.984
    29   1 H    0.997 --    28 C    0.984
    30   1 H    0.998 --    28 C    0.984
    31   1 H    0.999 --    28 C    0.985
    32   6 C    3.941 --    38 C    0.997    34 C    0.991    23 C    0.941
                            33 O    0.940
    33   8 O    2.200 --    21 B    1.109    32 C    0.940
    34   6 C    3.994 --    32 C    0.991    36 H    0.984    37 H    0.982
                            35 H    0.981
    35   1 H    0.997 --    34 C    0.981
    36   1 H    0.997 --    34 C    0.984
    37   1 H    0.997 --    34 C    0.982
    38   6 C    3.994 --    32 C    0.997    41 H    0.984    39 H    0.983
                            40 H    0.983
    39   1 H    0.998 --    38 C    0.983
    40   1 H    0.997 --    38 C    0.983
    41   1 H    0.997 --    38 C    0.984
    42   5 B    3.336 --    43 O    1.115    54 O    1.109    19 Ir   0.853
    43   8 O    2.226 --    42 B    1.115    44 C    0.938
    44   6 C    3.937 --    45 C    0.996    49 C    0.991    43 O    0.938
                            53 C    0.937
    45   6 C    3.993 --    44 C    0.996    48 H    0.983    46 H    0.982
                            47 H    0.982
    46   1 H    0.997 --    45 C    0.982
    47   1 H    0.997 --    45 C    0.982
    48   1 H    0.996 --    45 C    0.983
    49   6 C    3.994 --    44 C    0.991    50 H    0.983    51 H    0.983
                            52 H    0.978
    50   1 H    0.997 --    49 C    0.983
    51   1 H    0.998 --    49 C    0.983
    52   1 H    0.997 --    49 C    0.978
    53   6 C    3.938 --    55 C    0.996    59 C    0.992    44 C    0.937
                            54 O    0.937
    54   8 O    2.224 --    42 B    1.109    53 C    0.937
    55   6 C    3.993 --    53 C    0.996    58 H    0.983    57 H    0.983
                            56 H    0.982
    56   1 H    0.997 --    55 C    0.982
    57   1 H    0.997 --    55 C    0.983
    58   1 H    0.996 --    55 C    0.983
    59   6 C    3.994 --    53 C    0.992    61 H    0.983    62 H    0.983
                            60 H    0.982
    60   1 H    0.998 --    59 C    0.982
    61   1 H    0.996 --    59 C    0.983
    62   1 H    0.997 --    59 C    0.983
    63   5 B    3.353 --    64 O    1.110    75 O    1.108    19 Ir   0.869
    64   8 O    2.229 --    63 B    1.110    65 C    0.941
    65   6 C    3.939 --    70 C    0.996    66 C    0.991    64 O    0.941
                            74 C    0.938
    66   6 C    3.993 --    65 C    0.991    69 H    0.983    68 H    0.983
                            67 H    0.979
    67   1 H    0.997 --    66 C    0.979
    68   1 H    0.997 --    66 C    0.983
    69   1 H    0.997 --    66 C    0.983
    70   6 C    3.992 --    65 C    0.996    72 H    0.984    73 H    0.982
                            71 H    0.982
    71   1 H    0.996 --    70 C    0.982
    72   1 H    0.997 --    70 C    0.984
    73   1 H    0.997 --    70 C    0.982
    74   6 C    3.936 --    76 C    0.996    80 C    0.991    65 C    0.938
                            75 O    0.937
    75   8 O    2.223 --    63 B    1.108    74 C    0.937
    76   6 C    3.993 --    74 C    0.996    77 H    0.983    79 H    0.982
                            78 H    0.982
    77   1 H    0.996 --    76 C    0.983
    78   1 H    0.997 --    76 C    0.982
    79   1 H    0.997 --    76 C    0.982
    80   6 C    3.995 --    74 C    0.991    81 H    0.984    83 H    0.983
                            82 H    0.983
    81   1 H    0.998 --    80 C    0.984
    82   1 H    0.997 --    80 C    0.983
    83   1 H    0.996 --    80 C    0.983
    84   1 H    0.997 --     4 C    0.969
    85   1 H    0.997 --    14 C    0.969
    86   6 C    3.955 --    87 C    1.376    88 C    1.376    19 Ir   0.584
                            20 H    0.357
    87   6 C    3.987 --    90 C    1.397    86 C    1.376    89 C    1.020
                            91 C    0.102
    88   6 C    3.989 --    91 C    1.450    86 C    1.376    92 H    0.957
                            90 C    0.106
    89   6 C    3.996 --    87 C    1.020    95 H    0.978    93 H    0.972
                            94 H    0.971
    90   6 C    3.987 --    96 C    1.451    87 C    1.397    97 H    0.968
                            88 C    0.106
    91   6 C    3.989 --    88 C    1.450    96 C    1.417    98 H    0.969
                            87 C    0.102
    92   1 H    0.997 --    88 C    0.957
    93   1 H    0.997 --    89 C    0.972
    94   1 H    0.999 --    89 C    0.971
    95   1 H    0.998 --    89 C    0.978
    96   6 C    3.988 --    90 C    1.451    91 C    1.417    99 H    0.971
    97   1 H    0.999 --    90 C    0.968
    98   1 H    0.998 --    91 C    0.969
    99   1 H    0.997 --    96 C    0.971
 ---------------------------------------------------------------------------

Topologies differ in total number of bonds
Writing topology from bond orders to xtbtopo.mol

molecular dipole:
                 x           y           z       tot (Debye)
 q only:        0.035       0.294      -0.886
   full:       -1.041       0.671      -1.454       4.854
molecular quadrupole (traceless):
                xx          xy          yy          xz          yz          zz
 q only:       11.140       1.238      -1.115       1.183      11.460     -10.026
  q+dip:       14.282       2.762      -5.406       0.516      16.316      -8.875
   full:       11.985       3.668      -1.963      -1.343      13.423     -10.022


           -------------------------------------------------
          | TOTAL ENERGY             -139.594581232902 Eh   |
          | GRADIENT NORM               0.028873416558 Eh/α |
          | HOMO-LUMO GAP               0.870013873801 eV   |
           -------------------------------------------------

------------------------------------------------------------------------
 * finished run on 2021/10/08 at 07:10:30.713     
------------------------------------------------------------------------
 total:
 * wall-time:     0 d,  0 h,  0 min,  0.150 sec
 *  cpu-time:     0 d,  0 h,  0 min,  0.873 sec
 * ratio c/w:     5.837 speedup
 SCF:
 * wall-time:     0 d,  0 h,  0 min,  0.108 sec
 *  cpu-time:     0 d,  0 h,  0 min,  0.645 sec
 * ratio c/w:     5.973 speedup

