99
 energy: -139.594581232682 gnorm: 0.000253364506 xtb: 6.4.0 (f63f532)
N        -0.90674391097454   -1.93350578101148   -0.50649027311005
C        -2.10986033263574   -1.36210449916583   -0.71502571150242
C        -2.91214063974937   -1.75126252572983   -1.79438202675834
C        -2.47715748505144   -2.73635750382649   -2.65349853485754
C        -1.23455004867367   -3.32155186708847   -2.42250631683787
C        -0.49569071499203   -2.87988632073361   -1.34534733702875
H         0.47452530990729   -3.30382031311734   -1.12672589953939
H        -0.85569831114991   -4.09810364999296   -3.06707935481371
H        -3.86605621122930   -1.28055427853208   -1.96738510059588
C        -2.50538400624229   -0.33070546964139    0.23521046847556
N        -1.58852867636455    0.01798056939868    1.16488114476695
C        -1.91763791447179    0.93525335558457    2.07152716618260
C        -3.14191381992953    1.57035664693863    2.10545936295241
C        -4.09079096841710    1.23656253330336    1.14206203077878
C        -3.76603210305967    0.27797155526023    0.20657248667299
H        -4.49344055115738   -0.00474710733702   -0.53638652488526
H        -3.35486024603277    2.30244135969728    2.86762324173431
H        -1.15045700490699    1.16689745012965    2.79384013298140
Ir        0.42150000000007   -0.81649999999988    0.91330000000000
H         0.87259999999989   -2.23029999999984    1.54050000000004
B         0.46800138145386    0.64574469477520   -0.59256591430507
O        -0.26510149022356    0.45162256460917   -1.75127458150931
C        -0.26319317145592    1.64335106125977   -2.54261913676952
C        -0.14425768378593    1.27994770084794   -4.02063794486239
H         0.70262219393448    0.62326347134255   -4.18920520235505
H        -0.03328112224262    2.18038608702515   -4.61936858721951
H        -1.04622962089119    0.75860673636456   -4.33254877492616
C        -1.60843991842803    2.34348968428756   -2.30120451170190
H        -1.69895765938331    3.24115726583093   -2.90565538745311
H        -2.40967333122928    1.65572992279768   -2.56437447163512
H        -1.71385223540823    2.59572206405711   -1.24795275121612
C         0.94781754950393    2.43894823798163   -1.95560388526241
O         1.07560630744998    1.88042665021177   -0.64129412287337
C         2.25869092638849    2.13917383853005   -2.69289123917515
H         2.43355571670611    1.06608442662064   -2.68433771838353
H         2.23673398821347    2.51625189190435   -3.71127915942736
H         3.07811477183517    2.61315067290217   -2.15723273145330
C         0.74550127962299    3.95052155210331   -1.86557941653700
H        -0.06550020283250    4.19915202399153   -1.18784124397987
H         1.65601315212932    4.41083261530855   -1.48882872300127
H         0.53179478344059    4.35648248232522   -2.85118371821763
B         1.54452068482884    0.69274602288665    1.81520409278986
O         2.91065844359714    0.81366941176015    1.86816131899383
C         3.28483275634220    2.09783991957101    2.38356374543041
C         4.43662561168656    1.93075019729741    3.37543566505721
H         4.17924776368694    1.22646629196041    4.15922799153155
H         5.30392066127298    1.54315819929259    2.84698998981117
H         4.69430477727501    2.88990874777114    3.81628133574858
C         3.76524413995305    2.92687459372560    1.18622019358788
H         4.03069614967720    3.93810791951971    1.47946191211463
H         4.64077410203927    2.44334723520391    0.75824825974704
H         2.98442631354912    2.93903736168531    0.43107823389758
C         1.94573418494714    2.63050331056712    3.00908437756309
O         0.95433988757277    1.76556321078197    2.44103457368003
C         1.60425585411769    4.07633588168749    2.64911966961732
H         1.48087203349202    4.18012924499639    1.57632531671117
H         0.66644864623557    4.34843230047784    3.12715636040174
H         2.38356331783314    4.74804885053376    2.99856906086075
C         1.87325924804407    2.46033845731458    4.53209738412180
H         2.02476562515250    1.41797401337781    4.79786058349360
H         2.60894858297607    3.08332312030046    5.03118166715155
H         0.88024012837904    2.74926072736382    4.86857806224763
B         2.27820000000078   -1.33090000000123    0.17409999999718
O         3.18146850418166   -2.15197484670102    0.81572846705293
C         4.42525487929183   -2.18198994571294    0.10779495614043
C         5.38538308527226   -1.25710821365250    0.86361399096303
H         4.93109538635830   -0.27452784217808    0.95054952405043
H         5.52096897142039   -1.65071575177010    1.86786034655751
H         6.35164913378513   -1.19456292690134    0.37247552457292
C         4.98264313709611   -3.60574406181133    0.11961132363631
H         5.20467285302140   -3.88408443524438    1.14638809793170
H         5.89678149907913   -3.65505187101791   -0.46547691450061
H         4.26211084338959   -4.31655392843800   -0.27093373880204
C         4.02978091476979   -1.63397879121185   -1.30849009677736
O         2.77717643222162   -0.97613263665010   -1.06130874349938
C         5.01721472208756   -0.63285685792682   -1.90571353516212
H         6.00204567315846   -1.08315017290264   -1.99498676335669
H         4.67513401171640   -0.34025496414965   -2.89539157475368
H         5.07402756222540    0.25797259437468   -1.28962106875871
C         3.76374170945071   -2.74565351411087   -2.33288280585043
H         3.03928369970479   -3.45320138978787   -1.93914416572623
H         3.34380917230860   -2.29855457952714   -3.23074392764966
H         4.68138011043620   -3.26503923507909   -2.59183982966614
H        -3.08683200598383   -3.04550117565443   -3.48912938219347
H        -5.06065950186390    1.71071116367273    1.13080182499814
C         0.23589999999998   -1.68140000000037    2.96030000000029
C        -0.97597671526025   -2.19866322371711    3.42559087860222
C         1.20758756750531   -1.33411444961474    3.90097370591554
C        -2.01522901975251   -2.80166891470039    2.52354914349869
C        -1.23873591506712   -2.19527444733474    4.79470223600128
C         0.94112739541740   -1.35032528821156    5.25834744258922
H         2.19027079169560   -1.05594675351636    3.55319254052237
H        -1.59159518638375   -3.04474112219541    1.55394666740603
H        -2.84869788484429   -2.11453427003523    2.37527880886819
H        -2.41325593748954   -3.71131953790526    2.97197045267863
C        -0.30477278008225   -1.75395165559376    5.71085665247494
H        -2.19483806916696   -2.56485991606051    5.14211963060861
H         1.70538126707986   -1.06093263069449    5.96641633852472
H        -0.53234039506718   -1.75754668025938    6.76731381640948
