99
 energy: -139.565501324819 gnorm: 0.076156133179 xtb: 6.4.0 (f63f532)
N        -0.96510000000000   -2.11530000000000   -0.24090000000000
C        -2.24700000000000   -1.69840000000000   -0.36220000000000
C        -3.14040000000000   -2.36820000000000   -1.21200000000000
C        -2.70220000000000   -3.47560000000000   -1.93050000000000
C        -1.37780000000000   -3.89880000000000   -1.78760000000000
C        -0.54290000000000   -3.18670000000000   -0.93510000000000
H         0.49810000000000   -3.45630000000000   -0.78940000000000
H        -0.99570000000000   -4.76030000000000   -2.32770000000000
H        -4.16500000000000   -2.02890000000000   -1.31830000000000
C        -2.62130000000000   -0.50950000000000    0.44100000000000
N        -1.62600000000000    0.07330000000000    1.16020000000000
C        -1.89680000000000    1.15240000000000    1.91690000000000
C        -3.17230000000000    1.70330000000000    1.99650000000000
C        -4.20510000000000    1.11740000000000    1.26270000000000
C        -3.92610000000000    0.00250000000000    0.47820000000000
H        -4.71960000000000   -0.46420000000000   -0.09520000000000
H        -3.34630000000000    2.57510000000000    2.62070000000000
H        -1.04450000000000    1.57420000000000    2.43690000000000
Ir        0.42150000000000   -0.81650000000000    0.91330000000000
H         0.87260000000000   -2.23030000000000    1.54050000000000
B         0.50670000000000    0.41560000000000   -0.81540000000000
O         0.19500000000000   -0.04700000000000   -2.09150000000000
C         0.00650000000000    1.10040000000000   -2.95430000000000
C         0.49020000000000    0.74740000000000   -4.35780000000000
H         1.51610000000000    0.37380000000000   -4.33700000000000
H         0.44730000000000    1.62240000000000   -5.01670000000000
H        -0.14740000000000   -0.03390000000000   -4.78430000000000
C        -1.50120000000000    1.39560000000000   -2.96670000000000
H        -1.75370000000000    2.21460000000000   -3.64850000000000
H        -2.03200000000000    0.49450000000000   -3.28930000000000
H        -1.85170000000000    1.65210000000000   -1.96220000000000
C         0.84230000000000    2.20670000000000   -2.22040000000000
O         0.75200000000000    1.78260000000000   -0.83690000000000
C         2.32930000000000    2.18620000000000   -2.59900000000000
H         2.74130000000000    1.18500000000000   -2.45750000000000
H         2.48870000000000    2.51300000000000   -3.63180000000000
H         2.87200000000000    2.86270000000000   -1.93200000000000
C         0.28440000000000    3.62290000000000   -2.33660000000000
H        -0.72650000000000    3.69040000000000   -1.92910000000000
H         0.92130000000000    4.31480000000000   -1.77610000000000
H         0.26430000000000    3.94810000000000   -3.38320000000000
B         1.56300000000000    0.60960000000000    1.84840000000000
O         2.92780000000000    0.55230000000000    2.15020000000000
C         3.36330000000000    1.88660000000000    2.50260000000000
C         4.53140000000000    1.78590000000000    3.47740000000000
H         4.27910000000000    1.16090000000000    4.33690000000000
H         5.39390000000000    1.33790000000000    2.97340000000000
H         4.82390000000000    2.77870000000000    3.83820000000000
C         3.79700000000000    2.56850000000000    1.19670000000000
H         4.20020000000000    3.57090000000000    1.37680000000000
H         4.56740000000000    1.95560000000000    0.72110000000000
H         2.95240000000000    2.63260000000000    0.50540000000000
C         2.05040000000000    2.50090000000000    3.09320000000000
O         1.03750000000000    1.81620000000000    2.31910000000000
C         1.89100000000000    4.00450000000000    2.88650000000000
H         1.87290000000000    4.25440000000000    1.82410000000000
H         0.94940000000000    4.34260000000000    3.33170000000000
H         2.71080000000000    4.55150000000000    3.36630000000000
C         1.82470000000000    2.13200000000000    4.56520000000000
H         1.92610000000000    1.05330000000000    4.71320000000000
H         2.52610000000000    2.65280000000000    5.22540000000000
H         0.80630000000000    2.41580000000000    4.84900000000000
B         2.27820000000000   -1.33090000000000    0.17410000000000
O         2.89460000000000   -2.57740000000000    0.38450000000000
C         4.26930000000000   -2.48200000000000   -0.07210000000000
C         5.10900000000000   -2.05380000000000    1.14010000000000
H         4.76350000000000   -1.08740000000000    1.51750000000000
H         4.98050000000000   -2.79470000000000    1.93590000000000
H         6.17420000000000   -1.99290000000000    0.89300000000000
C         4.71950000000000   -3.84660000000000   -0.58470000000000
H         4.75280000000000   -4.56130000000000    0.24420000000000
H         5.72330000000000   -3.78370000000000   -1.02010000000000
H         4.03500000000000   -4.23600000000000   -1.34170000000000
C         4.16440000000000   -1.36220000000000   -1.16300000000000
O         3.08520000000000   -0.55030000000000   -0.65400000000000
C         5.40720000000000   -0.48870000000000   -1.31550000000000
H         6.27320000000000   -1.09010000000000   -1.61530000000000
H         5.23300000000000    0.26930000000000   -2.08590000000000
H         5.64270000000000    0.02650000000000   -0.38240000000000
C         3.71800000000000   -1.89830000000000   -2.53110000000000
H         2.82530000000000   -2.52160000000000   -2.42740000000000
H         3.46090000000000   -1.05250000000000   -3.17550000000000
H         4.50570000000000   -2.48290000000000   -3.01790000000000
H        -3.38500000000000   -4.00130000000000   -2.59310000000000
H        -5.21400000000000    1.52080000000000    1.29960000000000
C         0.23590000000000   -1.68140000000000    2.96030000000000
C        -1.02487142540673   -2.08646476460068    3.45848592150635
C         1.31623224784444   -1.91342386626214    3.81920602608305
C        -2.33366054811372   -2.17615328014499    2.72112984256669
C        -1.16205746342414   -2.53344230459851    4.77352630682243
C         1.18426499489970   -2.46442614054999    5.08569691421327
H         2.31003447796913   -1.70869517733239    3.44303791009930
H        -2.18895479664894   -2.47199151799401    1.68794313248484
H        -2.88552680762241   -1.23602682039971    2.76743192765464
H        -2.97512027815521   -2.93076169135745    3.17989807391575
C        -0.07203307125809   -2.76275009431356    5.58969852963565
H        -2.15727003761484   -2.78026055955384    5.12813512477185
H         2.06365090652816   -2.70633490942818    5.66787878424003
H        -0.21338438822363   -3.21116843412942    6.56479992806209
99
 energy: -139.575451334080 gnorm: 0.046997895869 xtb: 6.4.0 (f63f532)
N        -0.95166538304817   -2.06757226538763   -0.29939299597837
C        -2.22820576973067   -1.64818853477749   -0.42390124904368
C        -3.13215666605388   -2.34752575939878   -1.23286801235434
C        -2.70525123536770   -3.46317148680880   -1.92992807142115
C        -1.38513493729412   -3.88241041379699   -1.78838973605926
C        -0.55157295431117   -3.15765264137363   -0.95873656466721
H         0.47874389258639   -3.44509599042854   -0.79662689238200
H        -1.01046022210668   -4.74913075510725   -2.31435932655534
H        -4.15645980375916   -2.02104952071970   -1.32675055112091
C        -2.59513103409686   -0.45489608552703    0.35842591386223
N        -1.60253215654987    0.12072248311667    1.07563104929302
C        -1.89015936514328    1.16083327571188    1.86351996448028
C        -3.16343955768825    1.69314943461378    1.97550808438333
C        -4.19495612397609    1.11216118624345    1.24571663200465
C        -3.90838132212198    0.02410596318050    0.44001488530296
H        -4.70606952217001   -0.45492335339510   -0.10730522510397
H        -3.34215330676854    2.54465824831743    2.61811070603671
H        -1.05182229522299    1.56449079104770    2.41242602691371
Ir        0.42150000000001   -0.81649999999999    0.91330000000000
H         0.87260000000000   -2.23030000000000    1.54050000000000
B         0.49685523174149    0.42356227472746   -0.79295022463758
O         0.17996679263752   -0.03402222351185   -2.06607438786264
C         0.01316973977625    1.09845377436619   -2.94525633662512
C         0.49207362219221    0.74934206171559   -4.35054952598475
H         1.51121209714962    0.37281611468958   -4.32916581287826
H         0.44737057303526    1.62463432785078   -4.99935147984816
H        -0.14632966570293   -0.02688940713398   -4.77133087604909
C        -1.49158920337333    1.40025946200086   -2.97056415551164
H        -1.73165013547371    2.21357079125445   -3.65383747346375
H        -2.02183008187885    0.50322576046055   -3.29076708196919
H        -1.83858827519444    1.65451368229560   -1.96880926155229
C         0.83534562655311    2.20782393075294   -2.21339288137311
O         0.75832210902976    1.78026465882612   -0.83673965895834
C         2.31854798900565    2.19127090628167   -2.59946032040313
H         2.72290944678669    1.19197497665779   -2.45017283532348
H         2.47193728695517    2.51346722259826   -3.62876131178038
H         2.86057280833539    2.86505252071042   -1.93673009110378
C         0.28352968111172    3.62411382091355   -2.33903071073427
H        -0.72016221841960    3.69236746328446   -1.92735714605396
H         0.92238721112772    4.30754874323247   -1.78100930267414
H         0.26620965853237    3.93829542279249   -3.38280259497756
B         1.56303627343779    0.61048689009980    1.86633640218762
O         2.92508551830351    0.56197556613716    2.14101398690528
C         3.36278445689621    1.88433636498426    2.51077637433461
C         4.53255540744092    1.78720934917324    3.48181120219789
H         4.27949899204027    1.15933893015332    4.33209682950745
H         5.38769698257268    1.34225697378775    2.97463840613936
H         4.81576520599794    2.77749343896008    3.83773061710179
C         3.79887192396530    2.57128749588330    1.21155299349634
H         4.20050758082558    3.56713554256040    1.39480742735373
H         4.56317637728333    1.95989944808495    0.73461073797789
H         2.95144067682853    2.62445726284971    0.52925969866511
C         2.05272322471425    2.50314894948964    3.09101058812725
O         1.04080758220729    1.80733891789884    2.33723596854706
C         1.89404868202165    4.00558922601729    2.89012418198058
H         1.86984238607331    4.24956831290088    1.83180446174453
H         0.95617822886481    4.33516596932459    3.33569647631171
H         2.71389605014845    4.54222832451408    3.36711326613375
C         1.82999056331835    2.13797619001326    4.56303988700433
H         1.93098800039938    1.06193387240256    4.70069613108324
H         2.53047813789716    2.65868875942787    5.21359607677967
H         0.81523098313416    2.41660142636002    4.84657892185195
B         2.27820000000004   -1.33090000000012    0.17409999999988
O         2.90077013742482   -2.56233980492679    0.38983519571502
C         4.26572031902750   -2.48388989727040   -0.07686636417315
C         5.10923818596430   -2.05954372385018    1.13033375415041
H         4.75361422585772   -1.09933395251120    1.50215295335807
H         4.97734993093966   -2.79536579356916    1.92300287510842
H         6.16737839338288   -1.99948355653648    0.87989439489538
C         4.72015446953264   -3.84628477644198   -0.58701086942470
H         4.74893731177356   -4.55136432769048    0.24254849223551
H         5.71824158422494   -3.77550136850608   -1.01874609973720
H         4.03477249461862   -4.23317951568800   -1.33643278139925
C         4.16678347415937   -1.36064239759316   -1.15717930239627
O         3.07536737518284   -0.56339129479731   -0.66087925325681
C         5.41030897208997   -0.49231737745748   -1.31426006745424
H         6.26679647492026   -1.09762720556674   -1.61027084277751
H         5.23227864270286    0.25955440333838   -2.08203120716935
H         5.63802517144140    0.02164610930044   -0.38479710993882
C         3.72888549048495   -1.89912129302544   -2.52574247433147
H         2.83650600068771   -2.51439215855277   -2.41778438642367
H         3.47167335285802   -1.05721922239909   -3.16734166472854
H         4.51805901510740   -2.47663429076113   -3.00450996478750
H        -3.38651536283611   -3.99548451386711   -2.57973429228996
H        -5.20298653554710    1.50218645485775    1.30244977272763
C         0.23589999999998   -1.68140000000017    2.96029999999993
C        -1.01704515604865   -2.09616211399942    3.47510243946216
C         1.32551978243207   -1.89425691948080    3.81836785559788
C        -2.32677649562094   -2.20135960676938    2.74135501142794
C        -1.13642428683553   -2.53343168328570    4.79338999815679
C         1.20685976806057   -2.43613615670509    5.08893052066268
H         2.31491610319007   -1.68106374655023    3.43956323486264
H        -2.18067052711311   -2.50087428672784    1.71435414252662
H        -2.88100654890158   -1.26457066967319    2.78337666242439
H        -2.95847632738514   -2.95793955233603    3.20580345060915
C        -0.04147372178864   -2.74411025033610    5.60119163610460
H        -2.12509547473736   -2.78745338403995    5.15660622245368
H         2.09051908411770   -2.66437105770635    5.66804022751982
H        -0.17127956624117   -3.18664355080965    6.57890549438378
99
 energy: -139.579544194072 gnorm: 0.036366848888 xtb: 6.4.0 (f63f532)
N        -0.94183908151553   -2.04582390283751   -0.32426585432375
C        -2.21192734868138   -1.61772693397409   -0.45952699951074
C        -3.11930373750937   -2.31605009782823   -1.26297721238983
C        -2.70586298164119   -3.44025405668411   -1.94442671131318
C        -1.38790558948338   -3.86130891468424   -1.80191843770001
C        -0.55558350117560   -3.13457097083954   -0.97962147365635
H         0.46865763229662   -3.43436201439400   -0.81299322969626
H        -1.02370576144921   -4.73853775847488   -2.31082352928240
H        -4.14315161031851   -1.99430922140640   -1.34639281902588
C        -2.57700490026950   -0.44164643522197    0.32775280915745
N        -1.58852365678692    0.12248224195993    1.05319437266663
C        -1.88103903708591    1.16140648582122    1.82752399345884
C        -3.14892639874720    1.69282405648146    1.94522816391121
C        -4.18069763231471    1.11462013832676    1.21499688124725
C        -3.88774527802059    0.04067228153893    0.40164485871138
H        -4.68221475730303   -0.43719022316262   -0.14486279974871
H        -3.33352134478503    2.52285728372166    2.60908033910964
H        -1.05084991918490    1.56387693952130    2.38486480756180
Ir        0.42150000000002   -0.81649999999997    0.91330000000000
H         0.87260000000000   -2.23029999999999    1.54050000000000
B         0.51250964843998    0.43477057428176   -0.77198188945635
O         0.16863946544698   -0.02107373973119   -2.03703007115937
C         0.01571862038777    1.09798109366674   -2.92656506927975
C         0.49680812697057    0.74675213866375   -4.33104669762548
H         1.51173456459140    0.36692251160679   -4.31215437139235
H         0.45080254076619    1.62543977191885   -4.96862448931186
H        -0.14538418235579   -0.02292708546193   -4.74999698266664
C        -1.48733522981352    1.40831132756319   -2.97049226205030
H        -1.70953706537933    2.21779406595660   -3.65835113974530
H        -2.01660376120379    0.51413432226958   -3.29200083922079
H        -1.83593375631329    1.66428165611535   -1.97252135168820
C         0.83269939417767    2.20996959653163   -2.20078548635661
O         0.77038540114421    1.78512128023066   -0.82986754486047
C         2.31286168784262    2.19850715525311   -2.59760945008018
H         2.71247413477021    1.20039211138578   -2.44160278302569
H         2.45405623704297    2.51428096870388   -3.62672764275948
H         2.85448014537374    2.87466834665132   -1.94152674653593
C         0.27927559568250    3.62488424319576   -2.33519521168711
H        -0.71989319456407    3.69772555563522   -1.92047243024281
H         0.92263947416285    4.30515230697665   -1.78485189364017
H         0.26371656536831    3.92333939792809   -3.37945119822074
B         1.56590570881658    0.61264674586735    1.88002406576697
O         2.92327393234996    0.56971938081142    2.13486365655789
C         3.36168484543693    1.88176205620508    2.51787667957102
C         4.53020320317119    1.78502248125002    3.49085924861150
H         4.27913920474477    1.15300295391380    4.33480411900645
H         5.38179350737694    1.34632517634286    2.97938309413490
H         4.80331137681619    2.77464835301250    3.84368315217010
C         3.80251595023371    2.57743464993440    1.22565362523407
H         4.20105128566617    3.56863357436808    1.41626308590572
H         4.56493829046829    1.96811336853795    0.74891661782634
H         2.95317028774410    2.62380032860960    0.54900277140097
C         2.05347105871735    2.50050635118439    3.09433441153857
O         1.04350456053968    1.79652946914358    2.35637608511967
C         1.89672480696933    4.00281960222411    2.89285134392691
H         1.86598930615979    4.24485957448148    1.83707803369516
H         0.96339678338380    4.32755190341283    3.34306502169849
H         2.71932192114622    4.52961598849476    3.36648504636043
C         1.83893925287578    2.14306649960090    4.56990069566309
H         1.94081155607730    1.06848155078179    4.69937950212066
H         2.54094577848317    2.66615924854852    5.21009370396460
H         0.82627736386554    2.41850302219291    4.85296081293825
B         2.27820000000007   -1.33090000000023    0.17409999999976
O         2.90328252614815   -2.54939291452995    0.39754814216323
C         4.25847761449990   -2.48332394377512   -0.07762701046306
C         5.11135216423975   -2.06420379211028    1.12388766457141
H         4.74916186036702   -1.10789255163233    1.49241945122282
H         4.97818578089299   -2.79864726057684    1.91323647733126
H         6.16355680397276   -2.00527407937141    0.86620078209336
C         4.71305097153595   -3.84504132805586   -0.59002498800345
H         4.74201291380591   -4.54289694211016    0.24092251569333
H         5.70713321092145   -3.76494717160743   -1.01895703435256
H         4.02809305424883   -4.23249551085130   -1.33503182896274
C         4.16385992378555   -1.36042051408733   -1.15367938123006
O         3.06397008756790   -0.57382533655501   -0.66856791373870
C         5.40936636229267   -0.49504413731918   -1.30723070154594
H         6.25695470875966   -1.10788523294330   -1.59807590428172
H         5.23242703072674    0.25044390568560   -2.07667486687015
H         5.63303228107097    0.01976085156900   -0.38071409131020
C         3.74027763291557   -1.90175388566318   -2.52597007447043
H         2.84851738823323   -2.51276703182632   -2.41628087921882
H         3.48658978793636   -1.06148614258030   -3.16678407056530
H         4.53488365515470   -2.47439064523146   -2.99228468569008
H        -3.39334435405617   -3.98647617895662   -2.57124873454410
H        -5.19157140988867    1.48604413601378    1.29480685953471
C         0.23589999999996   -1.68140000000032    2.96029999999987
C        -1.00566491889760   -2.10740111498027    3.48772141919228
C         1.33884898750690   -1.86189164770491    3.81381909656953
C        -2.30643423403303   -2.21066720246388    2.73491416742214
C        -1.10366844979527   -2.53485751631459    4.81174428863957
C         1.24069726561696   -2.38666811090396    5.09180133732046
H         2.32124813355638   -1.63273537699148    3.42793778578330
H        -2.14997070713225   -2.50019084644604    1.70564540771051
H        -2.85889646556378   -1.27325027306133    2.77097297396413
H        -2.93515535654707   -2.97028033707539    3.19843215896674
C         0.00130143456262   -2.71179732672663    5.61430590157248
H        -2.08359551525040   -2.79870486298198    5.18961377310824
H         2.13261966182919   -2.58555697783364    5.66953074803282
H        -0.11019670167804   -3.13895428917145    6.60090178917906
99
 energy: -139.582096242286 gnorm: 0.034029456730 xtb: 6.4.0 (f63f532)
N        -0.92815638313055   -2.02736503145047   -0.35444036112073
C        -2.19580111598843   -1.59118221009560   -0.49649858816539
C        -3.10874730796171   -2.28888645382418   -1.29580543424161
C        -2.70707075867641   -3.42528937777413   -1.96320779973510
C        -1.38903589804960   -3.85183782176263   -1.81957703074874
C        -0.55105943993510   -3.12058164674761   -1.00581682039741
H         0.47150014079250   -3.42771277878426   -0.84045584798364
H        -1.03325070900894   -4.73881821005863   -2.31664174180400
H        -4.12924063899628   -1.95770074018856   -1.38200964389241
C        -2.55621549690685   -0.41632347133366    0.28497786416070
N        -1.57053647284304    0.13844779563951    1.02355287908976
C        -1.86886058609459    1.17191009580993    1.80258455172211
C        -3.13884626307301    1.69661532399526    1.92760294369702
C        -4.17034900048764    1.12109874396991    1.19051105838336
C        -3.86857217728734    0.06500072936922    0.35735067797782
H        -4.65839160920586   -0.40881499693049   -0.19908623691859
H        -3.32659314643189    2.51657920657963    2.60101646316647
H        -1.04187552234138    1.57990803710272    2.36043657498606
Ir        0.42150000000003   -0.81649999999996    0.91330000000000
H         0.87260000000000   -2.23029999999999    1.54049999999999
B         0.50614422604077    0.45246434600271   -0.75234988273800
O         0.15503103015630   -0.00966127963460   -2.01305383984650
C         0.01281731198227    1.10082329865908   -2.90772599036372
C         0.50139005059733    0.74114052981298   -4.30863848677102
H         1.51440733789786    0.35606290871377   -4.28742457208768
H         0.46013069559544    1.62189547129322   -4.94316987085942
H        -0.14509887646989   -0.02441835250656   -4.72867608545218
C        -1.48947833674066    1.41869723011929   -2.96883055088825
H        -1.69557929616627    2.22682799258203   -3.66286938217024
H        -2.01880503926920    0.52576927711510   -3.29368357086915
H        -1.84675665214869    1.68047222528429   -1.97549901892648
C         0.83174740134393    2.21466124711024   -2.18650717536580
O         0.77910174749728    1.79709419385346   -0.81694435513460
C         2.31015868600192    2.20538236851752   -2.59432817950641
H         2.71108007854915    1.20846373182071   -2.43368769887841
H         2.44032895257968    2.51426944323350   -3.62664027175111
H         2.85326087182050    2.88817700448263   -1.94640662121374
C         0.27501586480295    3.62875405151047   -2.32768334198022
H        -0.72281090191481    3.70574791085198   -1.91024621247218
H         0.92212590598045    4.31322687217910   -1.78692904532644
H         0.25623746530727    3.91400199701328   -3.37535423371495
B         1.56828088767514    0.61390898375712    1.88616829860203
O         2.92405677239319    0.57264136829590    2.12855940772482
C         3.36150441951462    1.87899173936853    2.52270482880455
C         4.52822524156951    1.77937769005073    3.49961689986050
H         4.27912326690510    1.14184348733464    4.34007750262636
H         5.38235683066950    1.34822276800156    2.98586248857990
H         4.79388610587511    2.76936067332381    3.85642836605603
C         3.80690260378923    2.58529551767527    1.23652196345615
H         4.20178347115646    3.57555062144966    1.43675971727795
H         4.57266695321274    1.97992578403519    0.75989750690060
H         2.95859215360168    2.63261078745865    0.55882271587018
C         2.05377632985734    2.49563123974033    3.10242357627421
O         1.04347824913976    1.78765532946143    2.37374021541853
C         1.89676960455491    3.99848997486949    2.89693186298650
H         1.85941137408052    4.24007304806040    1.84104169335705
H         0.96733913266869    4.32446492585451    3.35427729158704
H         2.72457399814615    4.52163686904304    3.36493868932901
C         1.84908791211668    2.14568526497311    4.58258633818353
H         1.95335472843636    1.07154421651787    4.71278373228598
H         2.55471500819457    2.67326395325651    5.21452205588289
H         0.83719240958711    2.42078997489385    4.86822253909228
B         2.27820000000012   -1.33090000000038    0.17409999999962
O         2.90348765632433   -2.54320984109925    0.40686742900249
C         4.25221522541989   -2.48244371138465   -0.07589237701487
C         5.11525522387944   -2.06679399811288    1.12111106709876
H         4.75413702455536   -1.11089458303734    1.49161431285110
H         4.98475193639157   -2.80315291392881    1.90901600578007
H         6.16494936403542   -2.00881999469794    0.85525588126081
C         4.70280560964017   -3.84561539564490   -0.59170763390322
H         4.73521738187640   -4.54217002195688    0.24009712037003
H         5.69538791525551   -3.76110813286437   -1.02248556482748
H         4.01655175524887   -4.23392845172759   -1.33521354245597
C         4.15952427214871   -1.36095165418903   -1.15351417994635
O         3.05523233444295   -0.57844822712875   -0.67697442712537
C         5.40639546679756   -0.49481142535561   -1.29955192736393
H         6.25193962282446   -1.11343174669106   -1.58351317314241
H         5.23497884762201    0.24731401233114   -2.07344589731099
H         5.62680843133038    0.02239730626946   -0.37351763616285
C         3.75000357785663   -1.90483535402795   -2.53038555053655
H         2.85854996362991   -2.51686186668667   -2.42594229794631
H         3.50243954978807   -1.06485817609010   -3.17412698320083
H         4.55163354978612   -2.47636815283459   -2.98514285032888
H        -3.40173688463665   -3.97922096676624   -2.57517107869832
H        -5.18364962355485    1.48181440338309    1.28022104604728
C         0.23589999999992   -1.68140000000052    2.96029999999978
C        -0.99209240999579   -2.11869737654921    3.50101687582699
C         1.35257750476033   -1.82269867987987    3.80627723625574
C        -2.28689919177096   -2.23174324274386    2.74162658912147
C        -1.07092985015863   -2.53464482129289    4.82984658635781
C         1.27590706107647   -2.32380365646626    5.09474460797934
H         2.32689348424681   -1.57729253345415    3.40890868525993
H        -2.11568082429762   -2.51787893759689    1.71243791375016
H        -2.83987469506093   -1.29397779431491    2.76888485010573
H        -2.91566473162239   -2.99327202220906    3.20169087933320
C         0.04573350294866   -2.67089063587907    5.62812706903892
H        -2.04168176483664   -2.81653030829887    5.22002848396327
H         2.17715481857306   -2.48503734703029    5.67273359290579
H        -0.04562219748198   -3.08009937162062    6.62524948622027
99
 energy: -139.584222642753 gnorm: 0.033239189661 xtb: 6.4.0 (f63f532)
N        -0.91750923606320   -2.02364394986970   -0.37052439503458
C        -2.18193168379340   -1.57612894333152   -0.52175094679849
C        -3.09576654338768   -2.26345702824041   -1.33024573594625
C        -2.70465114875834   -3.41012609954300   -1.98585402565536
C        -1.38872239959524   -3.84619757706202   -1.83761366212832
C        -0.54531060510072   -3.11654207528905   -1.02658961214621
H         0.47785326890337   -3.42646138415763   -0.86794398201423
H        -1.03953991582285   -4.73882729338886   -2.32904955628007
H        -4.10994752840735   -1.91458370976329   -1.42980772508593
C        -2.53971534265385   -0.40319643899355    0.26029794465224
N        -1.55691622009814    0.14238432985446    1.01386693399612
C        -1.85659515555982    1.18260206907726    1.78593807306627
C        -3.12755929569501    1.70540511509887    1.90791732700992
C        -4.15695400097392    1.13468242353870    1.16096081690430
C        -3.84943178462758    0.09021964274625    0.31665819430068
H        -4.63130444200924   -0.36788793696408   -0.26537479861359
H        -3.31786955396252    2.51855279076039    2.58800838984276
H        -1.03125476409078    1.59501952519453    2.34427445479080
Ir        0.42150000000005   -0.81649999999994    0.91330000000000
H         0.87260000000001   -2.23029999999999    1.54049999999999
B         0.51212119801652    0.46891231159135   -0.73408364189287
O         0.14072523571947    0.00309716181551   -1.98809191759184
C         0.00770483814595    1.10636761465878   -2.88744557387017
C         0.50260249958963    0.73404726856147   -4.28382689170837
H         1.51268967890405    0.34029952362206   -4.25351021903592
H         0.47287878029904    1.61242040849341   -4.92357665109338
H        -0.14770498441632   -0.02918434655497   -4.70387130177405
C        -1.49307442119413    1.43268412241102   -2.96465534377366
H        -1.68575315696200    2.23893519069512   -3.66556798762083
H        -2.02377048273976    0.54103109026672   -3.29227100319559
H        -1.86268048064222    1.70227178709638   -1.97726425376923
C         0.83032209612693    2.22379532536024   -2.17214141344992
O         0.78899277900273    1.81117677226375   -0.80225242572269
C         2.30670418873934    2.21644078394853   -2.59062434878632
H         2.71271540662996    1.22201600534911   -2.42445652086177
H         2.42693219196952    2.51634361150172   -3.62730028305351
H         2.85230841877597    2.90807311404326   -1.95326015661943
C         0.26911066941138    3.63649476673303   -2.31865250704855
H        -0.72670215614696    3.71494247486776   -1.89518591431728
H         0.91874942375420    4.32874262847266   -1.78940035271420
H         0.24125449261768    3.91170129700161   -3.36966665269722
B         1.56909561605425    0.61271121868851    1.89252152137199
O         2.92706760815115    0.57530394812006    2.11941801711739
C         3.36350242193284    1.87700051084188    2.52801962349071
C         4.52901092360558    1.77095206675894    3.50728031522740
H         4.28069796424874    1.12470078425354    4.34220713344378