      -----------------------------------------------------------      
     |                   =====================                   |     
     |                           x T B                           |     
     |                   =====================                   |     
     |                         S. Grimme                         |     
     |          Mulliken Center for Theoretical Chemistry        |     
     |                    University of Bonn                     |     
      -----------------------------------------------------------      

   * xtb version 6.4.1 (1a32961) compiled by 'knkr256@seskscpg007.prim.scp' on 2021-10-19

   xtb is free software: you can redistribute it and/or modify it under
   the terms of the GNU Lesser General Public License as published by
   the Free Software Foundation, either version 3 of the License, or
   (at your option) any later version.
   
   xtb is distributed in the hope that it will be useful,
   but WITHOUT ANY WARRANTY; without even the implied warranty of
   MERCHANTABILITY or FITNESS FOR A PARTICULAR PURPOSE.  See the
   GNU Lesser General Public License for more details.
   
   Cite this work as:
   * C. Bannwarth, E. Caldeweyher, S. Ehlert, A. Hansen, P. Pracht,
     J. Seibert, S. Spicher, S. Grimme, WIREs Comput. Mol. Sci., 2020, 11,
     e01493. DOI: 10.1002/wcms.1493
   
   for GFN2-xTB:
   * C. Bannwarth, S. Ehlert and S. Grimme., J. Chem. Theory Comput., 2019,
     15, 1652-1671. DOI: 10.1021/acs.jctc.8b01176
   for GFN1-xTB:
   * S. Grimme, C. Bannwarth, P. Shushkov, J. Chem. Theory Comput., 2017,
     13, 1989-2009. DOI: 10.1021/acs.jctc.7b00118
   for GFN0-xTB:
   * P. Pracht, E. Caldeweyher, S. Ehlert, S. Grimme, ChemRxiv, 2019, preprint.
     DOI: 10.26434/chemrxiv.8326202.v1
   for GFN-FF:
   * S. Spicher and S. Grimme, Angew. Chem. Int. Ed., 2020, 59, 15665-15673.
     DOI: 10.1002/anie.202004239
   
   for ALPB and GBSA implicit solvation:
   * S. Ehlert, M. Stahn, S. Spicher, S. Grimme, J. Chem. Theory Comput.,
     2021, 17, 4250-4261. DOI: 10.1021/acs.jctc.1c00471
   
   for DFT-D4:
   * E. Caldeweyher, C. Bannwarth and S. Grimme, J. Chem. Phys., 2017,
     147, 034112. DOI: 10.1063/1.4993215
   * E. Caldeweyher, S. Ehlert, A. Hansen, H. Neugebauer, S. Spicher,
     C. Bannwarth and S. Grimme, J. Chem. Phys., 2019, 150, 154122.
     DOI: 10.1063/1.5090222
   * E. Caldeweyher, J.-M. Mewes, S. Ehlert and S. Grimme, Phys. Chem. Chem. Phys.
     2020, 22, 8499-8512. DOI: 10.1039/D0CP00502A
   
   for sTDA-xTB:
   * S. Grimme and C. Bannwarth, J. Chem. Phys., 2016, 145, 054103.
     DOI: 10.1063/1.4959605
   
   in the mass-spec context:
   * V. Asgeirsson, C. Bauer and S. Grimme, Chem. Sci., 2017, 8, 4879.
     DOI: 10.1039/c7sc00601b
   * J. Koopman and S. Grimme, ACS Omega 2019, 4, 12, 15120-15133.
     DOI: 10.1021/acsomega.9b02011
   
   for metadynamics refer to:
   * S. Grimme, J. Chem. Theory Comput., 2019, 155, 2847-2862
     DOI: 10.1021/acs.jctc.9b00143
   
   for SPH calculations refer to:
   * S. Spicher and S. Grimme, J. Chem. Theory Comput., 2021, 17, 1701-1714
     DOI: 10.1021/acs.jctc.0c01306
   
   with help from (in alphabetical order)
   P. Atkinson, C. Bannwarth, F. Bohle, G. Brandenburg, E. Caldeweyher
   M. Checinski, S. Dohm, S. Ehlert, S. Ehrlich, I. Gerasimov, J. Koopman
   C. Lavigne, S. Lehtola, F. März, M. Müller, F. Musil, H. Neugebauer
   J. Pisarek, C. Plett, P. Pracht, J. Seibert, P. Shushkov, S. Spicher
   M. Stahn, M. Steiner, T. Strunk, J. Stückrath, T. Rose, and J. Unsleber
   
 * started run on 2022/01/14 at 13:30:16.371     

           -------------------------------------------------
          |                Calculation Setup                |
           -------------------------------------------------

          program call               : xtb xtbopt.xyz --sp --alpb thf -P 6
          hostname                   : seskscpg007.prim.scp
          coordinate file            : xtbopt.xyz
          omp threads                :                     6
          number of atoms            :                    99
          number of electrons        :                   256
          charge                     :                     0
          spin                       :                   0.0
          first test random number   :      0.87043667118396

   ID    Z sym.   atoms
    1    7 N      1, 11
    2    6 C      2-6, 10, 12-15, 23, 24, 28, 32, 34, 38, 44, 45, 49, 53, 55,
                  59, 65, 66, 70, 74, 76, 80, 86-89, 91, 93, 95
    3    1 H      7-9, 16-18, 20, 25-27, 29-31, 35-37, 39-41, 46-48, 50-52,
                  56-58, 60-62, 67-69, 71-73, 77-79, 81-85, 90, 92, 94, 96-99
    4   77 Ir     19
    5    5 B      21, 42, 63
    6    8 O      22, 33, 43, 54, 64, 75

molecular fragmentation (1/2 indicates fragments):
111111111111111111111111111111111111111111111111111111111111111111111111
111111111111122222222222222
# atoms in fragment 1/2:    85    14
 fragment masses (1/2) :      730.32       91.13
CMA distance (Bohr)    :   9.059
constraining FC (au)   :  0.0500

           -------------------------------------------------
          |                 G F N 2 - x T B                 |
           -------------------------------------------------

        Reference                      10.1021/acs.jctc.8b01176
      * Hamiltonian:
        H0-scaling (s, p, d)           1.850000    2.230000    2.230000
        zeta-weighting                 0.500000
      * Dispersion:
        s8                             2.700000
        a1                             0.520000
        a2                             5.000000
        s9                             5.000000
      * Repulsion:
        kExp                           1.500000    1.000000
        rExp                           1.000000
      * Coulomb:
        alpha                          2.000000
        third order                    shell-resolved
        anisotropic                    true
        a3                             3.000000
        a5                             4.000000
        cn-shift                       1.200000
        cn-exp                         4.000000
        max-rad                        5.000000

      * Solvation model:               ALPB
        Solvent                        thf
        Parameter file                 internal GFN2-xTB/ALPB
        Dielectric constant                7.6000E+00
        Reference state                gsolv [1 M gas/solution]
        Free energy shift                  5.3248E-03 Eh       3.3414E+00 kcal/mol
        Temperature                        2.9815E+02 K
        Density                            8.8300E-01 kg/L
        Solvent mass                       7.2106E+01 g/mol
        Interaction kernel             P16
        Born radius scaling (c1)           1.7311E+00
        Born radii integrator          GBOBC
        Born offset                        0.0000E+00 a0       0.0000E+00 AA
        H-bond correction              true
        Ion screening                  false
        Surface tension                    1.0000E-05 Eh       1.5569E+01 dyn/cm
        Grid points                               230 per atom
q/qsh data taken from xtbrestart
CAMM data taken from xtbrestart

          ...................................................
          :                      SETUP                      :
          :.................................................:
          :  # basis functions                 246          :
          :  # atomic orbitals                 245          :
          :  # shells                          147          :
          :  # electrons                       256          :
          :  max. iterations                   250          :
          :  Hamiltonian                  GFN2-xTB          :
          :  restarted?                       true          :
          :  GBSA solvation                   true          :
          :  PC potential                    false          :
          :  electronic temp.          300.0000000     K    :
          :  accuracy                    1.0000000          :
          :  -> integral cutoff          0.2500000E+02      :
          :  -> integral neglect         0.1000000E-07      :
          :  -> SCF convergence          0.1000000E-05 Eh   :
          :  -> wf. convergence          0.1000000E-03 e    :
          :  Broyden damping             0.4000000          :
          ...................................................

 iter      E             dE          RMSdq      gap      omega  full diag
   1   -141.4330358 -0.141433E+03  0.184E-05    0.88       0.0  T
   2   -141.4330358  0.906653E-11  0.180E-05    0.88     556.8  T
   3   -141.4330358 -0.540012E-12  0.159E-05    0.88     633.5  T

   *** convergence criteria satisfied after 3 iterations ***

         #    Occupation            Energy/Eh            Energy/eV
      -------------------------------------------------------------
         1        2.0000           -0.6730408             -18.3144
       ...           ...                  ...                  ...
       122        2.0000           -0.3747070             -10.1963
       123        2.0000           -0.3444578              -9.3732
       124        2.0000           -0.3285182              -8.9394
       125        2.0000           -0.3187461              -8.6735
       126        2.0000           -0.3159158              -8.5965
       127        2.0000           -0.3083122              -8.3896
       128        2.0000           -0.3059289              -8.3247 (HOMO)
       129                         -0.2735221              -7.4429 (LUMO)
       130                         -0.2456636              -6.6848
       131                         -0.2430826              -6.6146
       132                         -0.2070866              -5.6351
       133                         -0.2020513              -5.4981
       ...                                ...                  ...
       245                          3.7737187             102.6881
      -------------------------------------------------------------
                  HL-Gap            0.0324069 Eh            0.8818 eV
             Fermi-level           -0.2896883 Eh           -7.8828 eV

 SCC (total)                   0 d,  0 h,  0 min,  0.083 sec
 SCC setup                      ...        0 min,  0.002 sec (  2.816%)
 Dispersion                     ...        0 min,  0.002 sec (  3.007%)
 classical contributions        ...        0 min,  0.000 sec (  0.182%)
 integral evaluation            ...        0 min,  0.010 sec ( 12.408%)
 iterations                     ...        0 min,  0.034 sec ( 41.366%)
 molecular gradient             ...        0 min,  0.033 sec ( 39.438%)
 printout                       ...        0 min,  0.001 sec (  0.692%)

         :::::::::::::::::::::::::::::::::::::::::::::::::::::
         ::                     SUMMARY                     ::
         :::::::::::::::::::::::::::::::::::::::::::::::::::::
         :: total energy            -139.597623284638 Eh    ::
         :: total w/o Gsasa/hb      -139.558678690136 Eh    ::
         :: gradient norm              0.033680173704 Eh/a0 ::
         :: HOMO-LUMO gap              0.881835530060 eV    ::
         ::.................................................::
         :: SCC energy              -141.433035808864 Eh    ::
         :: -> isotropic ES            0.235351321313 Eh    ::
         :: -> anisotropic ES          0.014903112077 Eh    ::
         :: -> anisotropic XC          0.047785730491 Eh    ::
         :: -> dispersion             -0.135848946465 Eh    ::
         :: -> Gsolv                  -0.047895706298 Eh    ::
         ::    -> Gelec               -0.008951111796 Eh    ::
         ::    -> Gsasa               -0.041896752857 Eh    ::
         ::    -> Ghb                 -0.002372657089 Eh    ::
         ::    -> Gshift               0.005324815444 Eh    ::
         :: repulsion energy           1.827309883575 Eh    ::
         :: add. restraining           0.000000000000 Eh    ::
         :: total charge               0.000000000003 e     ::
         :::::::::::::::::::::::::::::::::::::::::::::::::::::

           -------------------------------------------------
          |                Property Printout                |
           -------------------------------------------------

    * Orbital Energies and Occupations

         #    Occupation            Energy/Eh            Energy/eV
      -------------------------------------------------------------
         1        2.0000           -0.6730408             -18.3144
       ...           ...                  ...                  ...
       116        2.0000           -0.3935912             -10.7102
       117        2.0000           -0.3858140             -10.4985
       118        2.0000           -0.3850144             -10.4768
       119        2.0000           -0.3820513             -10.3961
       120        2.0000           -0.3812008             -10.3730
       121        2.0000           -0.3795061             -10.3269
       122        2.0000           -0.3747070             -10.1963
       123        2.0000           -0.3444578              -9.3732
       124        2.0000           -0.3285182              -8.9394
       125        2.0000           -0.3187461              -8.6735
       126        2.0000           -0.3159158              -8.5965
       127        2.0000           -0.3083122              -8.3896
       128        2.0000           -0.3059289              -8.3247 (HOMO)
       129                         -0.2735221              -7.4429 (LUMO)
       130                         -0.2456636              -6.6848
       131                         -0.2430826              -6.6146
       132                         -0.2070866              -5.6351
       133                         -0.2020513              -5.4981
       134                         -0.2005894              -5.4583
       135                         -0.1803255              -4.9069
       136                         -0.1466556              -3.9907
       137                         -0.1242370              -3.3807
       138                         -0.1211675              -3.2971
       139                         -0.1097321              -2.9860
       ...                                ...                  ...
       245                          3.7737187             102.6881
      -------------------------------------------------------------
                  HL-Gap            0.0324069 Eh            0.8818 eV
             Fermi-level           -0.2896883 Eh           -7.8828 eV

     #   Z          covCN         q      C6AA      α(0)
     1   7 N        2.557    -0.123    23.699     7.230
     2   6 C        2.955     0.075    26.313     8.414
     3   6 C        2.918    -0.044    29.085     8.844
     4   6 C        2.923    -0.023    28.585     8.768
     5   6 C        2.915    -0.045    29.116     8.848
     6   6 C        2.892     0.048    26.924     8.507
     7   1 H        0.926     0.051     2.308     2.376
     8   1 H        0.926     0.053     2.280     2.361
     9   1 H        0.926     0.044     2.391     2.418
    10   6 C        2.954     0.072    26.399     8.427
    11   7 N        2.562    -0.128    23.794     7.244
    12   6 C        2.890     0.042    27.067     8.530
    13   6 C        2.915    -0.046    29.139     8.852
    14   6 C        2.922    -0.026    28.644     8.777
    15   6 C        2.918    -0.046    29.131     8.851
    16   1 H        0.926     0.043     2.411     2.428
    17   1 H        0.926     0.049     2.333     2.389
    18   1 H        0.926     0.075     2.029     2.227
    19  77 Ir       5.957    -0.158   388.407    36.445
    20   1 H        0.977     0.086     1.914     2.162
    21   5 B        2.629     0.402    16.031     6.765
    22   8 O        1.638    -0.410    21.062     6.195
    23   6 C        3.836     0.130    18.444     6.110
    24   6 C        3.755    -0.121    22.869     6.819
    25   1 H        0.925     0.053     2.284     2.364
    26   1 H        0.925     0.044     2.395     2.420
    27   1 H        0.925     0.050     2.315     2.380
    28   6 C        3.754    -0.108    22.626     6.783
    29   1 H        0.925     0.047     2.364     2.404
    30   1 H        0.925     0.041     2.440     2.443
    31   1 H        0.925     0.028     2.621     2.532
    32   6 C        3.841     0.131    18.433     6.107
    33   8 O        1.637    -0.405    20.953     6.179
    34   6 C        3.755    -0.120    22.850     6.816
    35   1 H        0.925     0.050     2.321     2.382
    36   1 H        0.925     0.045     2.383     2.414
    37   1 H        0.925     0.049     2.330     2.387
    38   6 C        3.754    -0.119    22.846     6.815
    39   1 H        0.925     0.047     2.361     2.403
    40   1 H        0.925     0.053     2.285     2.364
    41   1 H        0.925     0.044     2.391     2.418
    42   5 B        2.624     0.403    16.049     6.773
    43   8 O        1.637    -0.385    20.568     6.122
    44   6 C        3.837     0.129    18.469     6.114
    45   6 C        3.755    -0.125    22.956     6.832
    46   1 H        0.925     0.055     2.260     2.351
    47   1 H        0.925     0.055     2.259     2.350
    48   1 H        0.925     0.049     2.333     2.389
    49   6 C        3.755    -0.121    22.879     6.820
    50   1 H        0.925     0.048     2.351     2.398
    51   1 H        0.925     0.045     2.389     2.417
    52   1 H        0.925     0.052     2.291     2.367
    53   6 C        3.833     0.128    18.487     6.117
    54   8 O        1.637    -0.383    20.528     6.116
    55   6 C        3.755    -0.124    22.933     6.828
    56   1 H        0.925     0.053     2.282     2.362
    57   1 H        0.925     0.054     2.271     2.357
    58   1 H        0.925     0.047     2.352     2.398
    59   6 C        3.755    -0.124    22.933     6.828
    60   1 H        0.925     0.048     2.342     2.393
    61   1 H        0.925     0.051     2.302     2.373
    62   1 H        0.925     0.049     2.329     2.387
    63   5 B        2.624     0.402    16.067     6.778
    64   8 O        1.637    -0.378    20.444     6.103
    65   6 C        3.831     0.125    18.528     6.124
    66   6 C        3.755    -0.130    23.051     6.846
    67   1 H        0.925     0.059     2.214     2.327
    68   1 H        0.925     0.054     2.271     2.357
    69   1 H        0.925     0.049     2.329     2.386
    70   6 C        3.755    -0.129    23.028     6.843
    71   1 H        0.925     0.060     2.194     2.316
    72   1 H        0.925     0.050     2.321     2.382
    73   1 H        0.925     0.051     2.305     2.374
    74   6 C        3.828     0.127    18.499     6.120
    75   8 O        1.637    -0.382    20.507     6.113
    76   6 C        3.755    -0.124    22.925     6.827
    77   1 H        0.925     0.050     2.318     2.381
    78   1 H        0.925     0.053     2.285     2.364
    79   1 H        0.925     0.054     2.267     2.354
    80   6 C        3.755    -0.122    22.886     6.821
    81   1 H        0.925     0.040     2.448     2.447
    82   1 H        0.925     0.049     2.335     2.390
    83   1 H        0.925     0.054     2.273     2.357
    84   1 H        0.926     0.050     2.318     2.381
    85   1 H        0.926     0.047     2.360     2.402
    86   6 C        2.829    -0.018    28.454     8.741
    87   6 C        2.925    -0.035    28.874     8.812
    88   6 C        2.927    -0.048    29.185     8.859
    89   6 C        2.916    -0.040    28.999     8.831
    90   1 H        0.925     0.018     2.768     2.602
    91   6 C        2.965     0.014    27.691     8.631
    92   1 H        0.926     0.038     2.470     2.458
    93   6 C        2.924    -0.053    29.315     8.879
    94   1 H        0.925     0.022     2.707     2.573
    95   6 C        3.757    -0.118    22.817     6.810
    96   1 H        0.926     0.028     2.609     2.526
    97   1 H        0.925     0.051     2.309     2.377
    98   1 H        0.925     0.052     2.297     2.370
    99   1 H        0.925     0.043     2.407     2.426

 Mol. C6AA /au·bohr⁶  :     102721.454243
 Mol. C8AA /au·bohr⁸  :    2733043.398821
 Mol. α(0) /au        :        497.378160


Wiberg/Mayer (AO) data.
largest (>0.10) Wiberg bond orders for each atom

 ---------------------------------------------------------------------------
     #   Z sym  total        # sym  WBO       # sym  WBO       # sym  WBO
 ---------------------------------------------------------------------------
     1   7 N    3.402 --     6 C    1.386     2 C    1.306    19 Ir   0.449
     2   6 C    3.979 --     3 C    1.345     1 N    1.306    10 C    1.097
     3   6 C    3.988 --     4 C    1.487     2 C    1.345     9 H    0.962
                             6 C    0.106
     4   6 C    3.985 --     3 C    1.487     5 C    1.377    84 H    0.969
     5   6 C    3.979 --     6 C    1.464     4 C    1.377     8 H    0.969
     6   6 C    3.979 --     5 C    1.464     1 N    1.386     7 H    0.957
                             3 C    0.106
     7   1 H    0.997 --     6 C    0.957
     8   1 H    0.996 --     5 C    0.969
     9   1 H    0.998 --     3 C    0.962
    10   6 C    3.979 --    15 C    1.350    11 N    1.298     2 C    1.097
    11   7 N    3.404 --    12 C    1.382    10 C    1.298    19 Ir   0.437
    12   6 C    3.973 --    13 C    1.462    11 N    1.382    18 H    0.948
                            15 C    0.105
    13   6 C    3.982 --    12 C    1.462    14 C    1.379    17 H    0.969
    14   6 C    3.982 --    15 C    1.482    13 C    1.379    85 H    0.969
    15   6 C    3.989 --    14 C    1.482    10 C    1.350    16 H    0.962
                            12 C    0.105
    16   1 H    0.998 --    15 C    0.962
    17   1 H    0.997 --    13 C    0.969
    18   1 H    0.994 --    12 C    0.948
    19  77 Ir   5.195 --    63 B    0.872    42 B    0.862    21 B    0.718
                            86 C    0.586    20 H    0.529     1 N    0.449
                            11 N    0.437
    20   1 H    0.990 --    19 Ir   0.529    86 C    0.351
    21   5 B    3.267 --    33 O    1.108    22 O    1.089    19 Ir   0.718
    22   8 O    2.188 --    21 B    1.089    23 C    0.943
    23   6 C    3.944 --    24 C    0.996    28 C    0.990    22 O    0.943
                            32 C    0.941
    24   6 C    3.994 --    23 C    0.996    26 H    0.984    27 H    0.983
                            25 H    0.983
    25   1 H    0.997 --    24 C    0.983
    26   1 H    0.997 --    24 C    0.984
    27   1 H    0.997 --    24 C    0.983
    28   6 C    3.997 --    23 C    0.990    31 H    0.985    29 H    0.984
                            30 H    0.984
    29   1 H    0.997 --    28 C    0.984
    30   1 H    0.998 --    28 C    0.984
    31   1 H    0.999 --    28 C    0.985
    32   6 C    3.941 --    38 C    0.997    34 C    0.991    23 C    0.941
                            33 O    0.940
    33   8 O    2.199 --    21 B    1.108    32 C    0.940
    34   6 C    3.994 --    32 C    0.991    36 H    0.984    37 H    0.982
                            35 H    0.982
    35   1 H    0.997 --    34 C    0.982
    36   1 H    0.997 --    34 C    0.984
    37   1 H    0.997 --    34 C    0.982
    38   6 C    3.994 --    32 C    0.997    41 H    0.984    39 H    0.983
                            40 H    0.983
    39   1 H    0.998 --    38 C    0.983
    40   1 H    0.997 --    38 C    0.983
    41   1 H    0.997 --    38 C    0.984
    42   5 B    3.333 --    43 O    1.112    54 O    1.108    19 Ir   0.862
    43   8 O    2.222 --    42 B    1.112    44 C    0.937
    44   6 C    3.937 --    45 C    0.997    49 C    0.991    53 C    0.939
                            43 O    0.937
    45   6 C    3.993 --    44 C    0.997    48 H    0.983    46 H    0.982
                            47 H    0.982
    46   1 H    0.997 --    45 C    0.982
    47   1 H    0.997 --    45 C    0.982
    48   1 H    0.996 --    45 C    0.983
    49   6 C    3.994 --    44 C    0.991    50 H    0.984    51 H    0.983
                            52 H    0.980
    50   1 H    0.997 --    49 C    0.984
    51   1 H    0.998 --    49 C    0.983
    52   1 H    0.997 --    49 C    0.980
    53   6 C    3.938 --    55 C    0.996    59 C    0.991    44 C    0.939
                            54 O    0.935
    54   8 O    2.226 --    42 B    1.108    53 C    0.935
    55   6 C    3.993 --    53 C    0.996    58 H    0.983    57 H    0.983
                            56 H    0.983
    56   1 H    0.997 --    55 C    0.983
    57   1 H    0.997 --    55 C    0.983
    58   1 H    0.996 --    55 C    0.983
    59   6 C    3.994 --    53 C    0.991    61 H    0.983    62 H    0.983
                            60 H    0.981
    60   1 H    0.998 --    59 C    0.981
    61   1 H    0.996 --    59 C    0.983
    62   1 H    0.997 --    59 C    0.983
    63   5 B    3.358 --    75 O    1.116    64 O    1.110    19 Ir   0.872
    64   8 O    2.227 --    63 B    1.110    65 C    0.939
    65   6 C    3.938 --    70 C    0.996    66 C    0.991    64 O    0.939
                            74 C    0.937
    66   6 C    3.992 --    65 C    0.991    69 H    0.983    68 H    0.983
                            67 H    0.979
    67   1 H    0.997 --    66 C    0.979
    68   1 H    0.997 --    66 C    0.983
    69   1 H    0.997 --    66 C    0.983
    70   6 C    3.992 --    65 C    0.996    72 H    0.984    73 H    0.982
                            71 H    0.982
    71   1 H    0.996 --    70 C    0.982
    72   1 H    0.996 --    70 C    0.984
    73   1 H    0.997 --    70 C    0.982
    74   6 C    3.936 --    76 C    0.996    80 C    0.991    65 C    0.937
                            75 O    0.937
    75   8 O    2.231 --    63 B    1.116    74 C    0.937
    76   6 C    3.993 --    74 C    0.996    77 H    0.983    78 H    0.982
                            79 H    0.982
    77   1 H    0.996 --    76 C    0.983
    78   1 H    0.997 --    76 C    0.982
    79   1 H    0.997 --    76 C    0.982
    80   6 C    3.995 --    74 C    0.991    81 H    0.984    83 H    0.983
                            82 H    0.983
    81   1 H    0.998 --    80 C    0.984
    82   1 H    0.997 --    80 C    0.983
    83   1 H    0.996 --    80 C    0.983
    84   1 H    0.997 --     4 C    0.969
    85   1 H    0.997 --    14 C    0.969
    86   6 C    3.955 --    87 C    1.392    88 C    1.382    19 Ir   0.586
                            20 H    0.351
    87   6 C    3.990 --    89 C    1.427    86 C    1.392    90 H    0.964
                            91 C    0.102
    88   6 C    3.988 --    91 C    1.424    86 C    1.382    92 H    0.959
                            89 C    0.105
    89   6 C    3.989 --    93 C    1.447    87 C    1.427    94 H    0.970
                            88 C    0.105
    90   1 H    0.999 --    87 C    0.964
    91   6 C    3.985 --    88 C    1.424    93 C    1.394    95 C    1.022
                            87 C    0.102
    92   1 H    0.998 --    88 C    0.959
    93   6 C    3.986 --    89 C    1.447    91 C    1.394    96 H    0.970
    94   1 H    0.999 --    89 C    0.970
    95   6 C    3.994 --    91 C    1.022    99 H    0.985    97 H    0.976
                            98 H    0.970
    96   1 H    0.997 --    93 C    0.970
    97   1 H    0.997 --    95 C    0.976
    98   1 H    0.997 --    95 C    0.970
    99   1 H    0.998 --    95 C    0.985
 ---------------------------------------------------------------------------

Topologies differ in total number of bonds
Writing topology from bond orders to xtbtopo.mol

molecular dipole:
                 x           y           z       tot (Debye)
 q only:        0.437       0.315      -0.432
   full:       -0.791       0.588      -1.006       3.580
molecular quadrupole (traceless):
                xx          xy          yy          xz          yz          zz
 q only:        9.895      -0.129      -4.966       6.484      10.498      -4.930
  q+dip:       13.466       2.083      -7.752       5.631      15.098      -5.714
   full:       10.729       2.805      -5.119       3.792      12.286      -5.610


           -------------------------------------------------
          | TOTAL ENERGY             -139.597623284638 Eh   |
          | GRADIENT NORM               0.033680173704 Eh/α |
          | HOMO-LUMO GAP               0.881835530060 eV   |
           -------------------------------------------------

------------------------------------------------------------------------
 * finished run on 2022/01/14 at 13:30:16.483     
------------------------------------------------------------------------
 total:
 * wall-time:     0 d,  0 h,  0 min,  0.112 sec
 *  cpu-time:     0 d,  0 h,  0 min,  0.650 sec
 * ratio c/w:     5.801 speedup
 SCF:
 * wall-time:     0 d,  0 h,  0 min,  0.084 sec
 *  cpu-time:     0 d,  0 h,  0 min,  0.500 sec
 * ratio c/w:     5.937 speedup

