94
 energy: -142.466835897584 gnorm: 0.003073656087 xtb: 6.4.1 (1a32961)
N        -0.96510000000000   -2.11529999999999   -0.24090000000000
C        -2.24700000000000   -1.69840000000000   -0.36220000000000
C        -3.14040000000000   -2.36820000000000   -1.21200000000000
C        -2.70220000000000   -3.47560000000001   -1.93050000000000
C        -1.37780000000001   -3.89880000000001   -1.78760000000002
C        -0.54290000000000   -3.18669999999999   -0.93510000000001
H         0.49810000000000   -3.45630000000000   -0.78940000000000
H        -0.99570000000000   -4.76030000000000   -2.32770000000000
H        -4.16500000000000   -2.02890000000000   -1.31830000000000
C        -2.62130000000000   -0.50950000000000    0.44100000000000
N        -1.62600000000000    0.07329999999999    1.16020000000001
C        -1.89680000000000    1.15240000000000    1.91690000000000
C        -3.17230000000000    1.70330000000000    1.99650000000000
C        -4.20510000000000    1.11740000000001    1.26270000000000
C        -3.92610000000000    0.00250000000000    0.47820000000000
H        -4.71960000000000   -0.46420000000000   -0.09520000000000
H        -3.34630000000000    2.57510000000000    2.62070000000000
H        -1.04450000000000    1.57420000000000    2.43690000000000
Ir        0.42150000000000   -0.81650000000000    0.91330000000000
H         0.87260000000000   -2.23030000000000    1.54050000000000
B         0.50670000000000    0.41560000000000   -0.81540000000000
O         0.19500000000000   -0.04700000000000   -2.09150000000000
C         0.00650000000000    1.10040000000001   -2.95430000000000
C         0.49020000000000    0.74740000000000   -4.35780000000001
H         1.51610000000000    0.37380000000000   -4.33700000000000
H         0.44730000000000    1.62240000000000   -5.01669999999999
H        -0.14739999999999   -0.03390000000000   -4.78430000000000
C        -1.50120000000000    1.39560000000000   -2.96670000000001
H        -1.75370000000000    2.21460000000000   -3.64850000000000
H        -2.03200000000000    0.49450000000000   -3.28930000000000
H        -1.85170000000000    1.65210000000000   -1.96220000000000
C         0.84230000000000    2.20669999999999   -2.22040000000000
O         0.75200000000000    1.78260000000001   -0.83690000000000
C         2.32930000000000    2.18620000000001   -2.59900000000000
H         2.74130000000000    1.18500000000001   -2.45750000000000
H         2.48870000000000    2.51300000000000   -3.63179999999999
H         2.87200000000000    2.86270000000000   -1.93200000000000
C         0.28440000000000    3.62289999999999   -2.33660000000001
H        -0.72650000000000    3.69040000000000   -1.92910000000000
H         0.92130000000000    4.31480000000001   -1.77610000000000
H         0.26430000000000    3.94810000000000   -3.38319999999999
B         1.56300000000000    0.60960000000000    1.84840000000000
O         2.92780000000000    0.55230000000000    2.15020000000000
C         3.36330000000000    1.88660000000000    2.50260000000000
C         4.53140000000000    1.78590000000001    3.47739999999999
H         4.27910000000000    1.16090000000000    4.33690000000001
H         5.39390000000000    1.33790000000000    2.97340000000000
H         4.82390000000000    2.77870000000000    3.83820000000000
C         3.79700000000000    2.56850000000000    1.19670000000000
H         4.20020000000000    3.57090000000000    1.37680000000000
H         4.56740000000000    1.95560000000000    0.72110000000000
H         2.95240000000000    2.63260000000000    0.50540000000000
C         2.05040000000000    2.50090000000000    3.09319999999999
O         1.03750000000000    1.81620000000001    2.31910000000001
C         1.89100000000000    4.00450000000000    2.88649999999998
H         1.87290000000000    4.25440000000000    1.82410000000001
H         0.94939999999999    4.34260000000000    3.33170000000000
H         2.71080000000000    4.55150000000001    3.36630000000000
C         1.82470000000001    2.13199999999997    4.56519999999998
H         1.92610000000000    1.05329999999998    4.71320000000000
H         2.52609999999999    2.65279999999999    5.22540000000001
H         0.80629999999999    2.41580000000000    4.84900000000000
B         2.27820000000000   -1.33090000000000    0.17410000000000
O         2.89460000000000   -2.57740000000000    0.38450000000000
C         4.26930000000000   -2.48200000000001   -0.07209999999999
C         5.10900000000000   -2.05380000000000    1.14010000000000
H         4.76350000000000   -1.08740000000000    1.51750000000000
H         4.98050000000000   -2.79469999999999    1.93590000000001
H         6.17420000000000   -1.99290000000000    0.89300000000000
C         4.71950000000000   -3.84660000000000   -0.58469999999999
H         4.75280000000000   -4.56130000000000    0.24420000000000
H         5.72330000000000   -3.78370000000000   -1.02010000000000
H         4.03500000000002   -4.23600000000000   -1.34170000000002
C         4.16440000000000   -1.36219999999999   -1.16299999999998
O         3.08520000000001   -0.55030000000000   -0.65400000000000
C         5.40720000000000   -0.48870000000000   -1.31549999999999
H         6.27320000000000   -1.09010000000000   -1.61530000000000
H         5.23300000000000    0.26930000000000   -2.08590000000000
H         5.64270000000000    0.02650000000000   -0.38240000000001
C         3.71800000000000   -1.89829999999999   -2.53109999999999
H         2.82530000000000   -2.52160000000000   -2.42740000000000
H         3.46090000000000   -1.05250000000001   -3.17550000000000
H         4.50570000000000   -2.48290000000000   -3.01790000000000
H        -3.38500000000000   -4.00130000000000   -2.59310000000000
H        -5.21400000000000    1.52080000000000    1.29960000000000
C         0.23590000000000   -1.68140000000000    2.96029999999999
C        -0.99422179074193   -2.05953782499527    3.46896668840894
C         1.24931794547060   -1.92227293881174    3.92792713998661
S        -0.93632681809967   -2.63553741086647    5.11175187920053
C        -2.26787381212174   -2.12596732678568    2.88798539440515
C         0.76371696735802   -2.42930157702986    5.09709720573825
H         2.29492057886741   -1.75172723726826    3.73192822677422
N        -3.34540327855093   -2.24463364638301    2.49374643627214
Br        1.76031770636557   -2.95224585589451    6.60006189087416
