      -----------------------------------------------------------      
     |                   =====================                   |     
     |                           x T B                           |     
     |                   =====================                   |     
     |                         S. Grimme                         |     
     |          Mulliken Center for Theoretical Chemistry        |     
     |                    University of Bonn                     |     
      -----------------------------------------------------------      

   * xtb version 6.4.0 (f63f532) compiled by 'knkr256@seskscpg008.prim.scp' on 2021-04-09

   xtb is free software: you can redistribute it and/or modify it under
   the terms of the GNU Lesser General Public License as published by
   the Free Software Foundation, either version 3 of the License, or
   (at your option) any later version.
   
   xtb is distributed in the hope that it will be useful,
   but WITHOUT ANY WARRANTY; without even the implied warranty of
   MERCHANTABILITY or FITNESS FOR A PARTICULAR PURPOSE.  See the
   GNU Lesser General Public License for more details.
   
   Cite this work as:
   * C. Bannwarth, E. Caldeweyher, S. Ehlert, A. Hansen, P. Pracht,
     J. Seibert, S. Spicher, S. Grimme, WIREs Comput. Mol. Sci., 2020, 11,
     e01493. DOI: 10.1002/wcms.1493
   
   for GFN2-xTB:
   * C. Bannwarth, S. Ehlert and S. Grimme., J. Chem. Theory Comput., 2019,
     15, 1652-1671. DOI: 10.1021/acs.jctc.8b01176
   for GFN1-xTB:
   * S. Grimme, C. Bannwarth, P. Shushkov, J. Chem. Theory Comput., 2017,
     13, 1989-2009. DOI: 10.1021/acs.jctc.7b00118
   for GFN0-xTB:
   * P. Pracht, E. Caldeweyher, S. Ehlert, S. Grimme, ChemRxiv, 2019, preprint.
     DOI: 10.26434/chemrxiv.8326202.v1
   for GFN-FF:
   * S. Spicher and S. Grimme, Angew. Chem. Int. Ed., 2020, 59, 15665-15673.
     DOI: 10.1002/anie.202004239
   
   for DFT-D4:
   * E. Caldeweyher, C. Bannwarth and S. Grimme, J. Chem. Phys., 2017,
     147, 034112. DOI: 10.1063/1.4993215
   * E. Caldeweyher, S. Ehlert, A. Hansen, H. Neugebauer, S. Spicher,
     C. Bannwarth and S. Grimme, J. Chem. Phys., 2019, 150, 154122.
     DOI: 10.1063/1.5090222
   * E. Caldeweyher, J.-M. Mewes, S. Ehlert and S. Grimme, Phys. Chem. Chem. Phys.
     2020, 22, 8499-8512. DOI: 10.1039/D0CP00502A
   
   for sTDA-xTB:
   * S. Grimme and C. Bannwarth, J. Chem. Phys., 2016, 145, 054103.
     DOI: 10.1063/1.4959605
   
   in the mass-spec context:
   * V. Asgeirsson, C. Bauer and S. Grimme, Chem. Sci., 2017, 8, 4879.
     DOI: 10.1039/c7sc00601b
   * J. Koopman and S. Grimme, ACS Omega 2019, 4, 12, 15120-15133.
     DOI: 10.1021/acsomega.9b02011
   
   for metadynamics refer to:
   * S. Grimme, J. Chem. Theory Comput., 2019, 155, 2847-2862
     DOI: 10.1021/acs.jctc.9b00143
   
   for SPH calculations refer to:
   * S. Spicher and S. Grimme, J. Chem. Theory Comput., 2021, 17, 1701-1714
     DOI: 10.1021/acs.jctc.0c01306
   
   with help from (in alphabetical order)
   P. Atkinson, C. Bannwarth, F. Bohle, G. Brandenburg, E. Caldeweyher
   M. Checinski, S. Dohm, S. Ehlert, S. Ehrlich, I. Gerasimov, J. Koopman
   C. Lavinge, S. Lehtola, F. März, M. Müller, F. Musil, H. Neugebauer
   J. Pisarek, P. Pracht, J. Seibert, P. Shushkov, S. Spicher, M. Stahn
   T. Strunk, J. Stückrath, T. Rose, and J. Unsleber
   
 * started run on 2021/10/08 at 07:25:04.014     

           -------------------------------------------------
          |                Calculation Setup                |
           -------------------------------------------------

          program call               : xtb xtbopt.xyz --sp --alpb thf -P 6
          hostname                   : seskscpg010.prim.scp
          coordinate file            : xtbopt.xyz
          omp threads                :                     6
          number of atoms            :                   111
          number of electrons        :                   290
          charge                     :                     0
          spin                       :                   0.0
          first test random number   :      0.61720524796399

   ID    Z sym.   atoms
    1    7 N      1, 11, 88
    2    6 C      2-6, 10, 12-15, 23, 24, 28, 32, 34, 38, 44, 45, 49, 53, 55,
                  59, 65, 66, 70, 74, 76, 80, 86, 87, 89, 91, 92, 94, 96, 99,
                  102-104, 106, 108
    3    1 H      7-9, 16-18, 20, 25-27, 29-31, 35-37, 39-41, 46-48, 50-52,
                  56-58, 60-62, 67-69, 71-73, 77-79, 81-85, 90, 93, 95, 97,
                  98, 100, 101, 105, 107, 109-111
    4   77 Ir     19
    5    5 B      21, 42, 63
    6    8 O      22, 33, 43, 54, 64, 75

molecular fragmentation (1/2 indicates fragments):
111111111111111111111111111111111111111111111111111111111111111111111111
111111111111122222222222222222222222222
# atoms in fragment 1/2:    85    26
 fragment masses (1/2) :      730.32      182.24
CMA distance (Bohr)    :  11.675
constraining FC (au)   :  0.0500

           -------------------------------------------------
          |                 G F N 2 - x T B                 |
           -------------------------------------------------

        Reference                      10.1021/acs.jctc.8b01176
      * Hamiltonian:
        H0-scaling (s, p, d)           1.850000    2.230000    2.230000
        zeta-weighting                 0.500000
      * Dispersion:
        s8                             2.700000
        a1                             0.520000
        a2                             5.000000
        s9                             5.000000
      * Repulsion:
        kExp                           1.500000    1.000000
        rExp                           1.000000
      * Coulomb:
        alpha                          2.000000
        third order                    shell-resolved
        anisotropic                    true
        a3                             3.000000
        a5                             4.000000
        cn-shift                       1.200000
        cn-exp                         4.000000
        max-rad                        5.000000

      * Solvation model:               ALPB
        Solvent                        thf
        Parameter file                 internal GFN2-xTB/ALPB
        Dielectric constant                7.6000E+00
        Reference state                gsolv [1 M gas/solution]
        Free energy shift                  5.3248E-03 Eh       3.3414E+00 kcal/mol
        Temperature                        2.9815E+02 K
        Density                            8.8300E-01 kg/L
        Solvent mass                       7.2106E+01 g/mol
        Interaction kernel             P16
        Born radius scaling (c1)           1.7311E+00
        Born radii integrator          GBOBC
        Born offset                        0.0000E+00 a0       0.0000E+00 AA
        H-bond correction              true
        Ion screening                  false
        Surface tension                    1.0000E-05 Eh       1.5569E+01 dyn/cm
        Grid points                               230 per atom
q/qsh data taken from xtbrestart
CAMM data taken from xtbrestart

          ...................................................
          :                      SETUP                      :
          :.................................................:
          :  # basis functions                 279          :
          :  # atomic orbitals                 278          :
          :  # shells                          166          :
          :  # electrons                       290          :
          :  max. iterations                   250          :
          :  Hamiltonian                  GFN2-xTB          :
          :  restarted?                       true          :
          :  GBSA solvation                   true          :
          :  PC potential                    false          :
          :  electronic temp.          300.0000000     K    :
          :  accuracy                    1.0000000          :
          :  -> integral cutoff          0.2500000E+02      :
          :  -> integral neglect         0.1000000E-07      :
          :  -> SCF convergence          0.1000000E-05 Eh   :
          :  -> wf. convergence          0.1000000E-03 e    :
          :  Broyden damping             0.4000000          :
          ...................................................

 iter      E             dE          RMSdq      gap      omega  full diag
   1   -160.0703991 -0.160070E+03  0.315E-05    0.89       0.0  T
   2   -160.0703991  0.599130E-09  0.803E-05    0.89     118.3  T
   3   -160.0703991 -0.692324E-09  0.928E-06    0.89    1022.3  T

   *** convergence criteria satisfied after 3 iterations ***

         #    Occupation            Energy/Eh            Energy/eV
      -------------------------------------------------------------
         1        2.0000           -0.6737813             -18.3345
       ...           ...                  ...                  ...
       139        2.0000           -0.3531183              -9.6088
       140        2.0000           -0.3427267              -9.3261
       141        2.0000           -0.3301752              -8.9845
       142        2.0000           -0.3217287              -8.7547
       143        2.0000           -0.3160508              -8.6002
       144        2.0000           -0.3110066              -8.4629
       145        2.0000           -0.3069387              -8.3522 (HOMO)
       146                         -0.2743080              -7.4643 (LUMO)
       147                         -0.2471321              -6.7248
       148                         -0.2439681              -6.6387
       149                         -0.2282072              -6.2098
       150                         -0.2193098              -5.9677
       ...                                ...                  ...
       278                          3.8049993             103.5393
      -------------------------------------------------------------
                  HL-Gap            0.0326307 Eh            0.8879 eV
             Fermi-level           -0.2906168 Eh           -7.9081 eV

 SCC (total)                   0 d,  0 h,  0 min,  0.134 sec
 SCC setup                      ...        0 min,  0.003 sec (  2.082%)
 Dispersion                     ...        0 min,  0.003 sec (  1.872%)
 classical contributions        ...        0 min,  0.000 sec (  0.158%)
 integral evaluation            ...        0 min,  0.039 sec ( 28.982%)
 iterations                     ...        0 min,  0.040 sec ( 30.109%)
 molecular gradient             ...        0 min,  0.049 sec ( 36.183%)
 printout                       ...        0 min,  0.001 sec (  0.561%)

         :::::::::::::::::::::::::::::::::::::::::::::::::::::
         ::                     SUMMARY                     ::
         :::::::::::::::::::::::::::::::::::::::::::::::::::::
         :: total energy            -157.922949594579 Eh    ::
         :: total w/o Gsasa/hb      -157.877569989664 Eh    ::
         :: gradient norm              0.034864279189 Eh/a0 ::
         :: HOMO-LUMO gap              0.887926705104 eV    ::
         ::.................................................::
         :: SCC energy              -160.070399141388 Eh    ::
         :: -> isotropic ES            0.242399764732 Eh    ::
         :: -> anisotropic ES          0.017627890803 Eh    ::
         :: -> anisotropic XC          0.063243527408 Eh    ::
         :: -> dispersion             -0.151392060154 Eh    ::
         :: -> Gsolv                  -0.055065403289 Eh    ::
         ::    -> Gelec               -0.009685798374 Eh    ::
         ::    -> Gsasa               -0.048280755713 Eh    ::
         ::    -> Ghb                 -0.002423664646 Eh    ::
         ::    -> Gshift               0.005324815444 Eh    ::
         :: repulsion energy           2.138755480418 Eh    ::
         :: add. restraining           0.000000000000 Eh    ::
         :: total charge               0.000000000967 e     ::
         :::::::::::::::::::::::::::::::::::::::::::::::::::::

           -------------------------------------------------
          |                Property Printout                |
           -------------------------------------------------

    * Orbital Energies and Occupations

         #    Occupation            Energy/Eh            Energy/eV
      -------------------------------------------------------------
         1        2.0000           -0.6737813             -18.3345
       ...           ...                  ...                  ...
       133        2.0000           -0.3894761             -10.5982
       134        2.0000           -0.3865368             -10.5182
       135        2.0000           -0.3856176             -10.4932
       136        2.0000           -0.3826354             -10.4120
       137        2.0000           -0.3808779             -10.3642
       138        2.0000           -0.3794252             -10.3247
       139        2.0000           -0.3531183              -9.6088
       140        2.0000           -0.3427267              -9.3261
       141        2.0000           -0.3301752              -8.9845
       142        2.0000           -0.3217287              -8.7547
       143        2.0000           -0.3160508              -8.6002
       144        2.0000           -0.3110066              -8.4629
       145        2.0000           -0.3069387              -8.3522 (HOMO)
       146                         -0.2743080              -7.4643 (LUMO)
       147                         -0.2471321              -6.7248
       148                         -0.2439681              -6.6387
       149                         -0.2282072              -6.2098
       150                         -0.2193098              -5.9677
       151                         -0.2103065              -5.7227
       152                         -0.2081575              -5.6643
       153                         -0.2032184              -5.5299
       154                         -0.1826426              -4.9700
       155                         -0.1490071              -4.0547
       156                         -0.1252289              -3.4077
       ...                                ...                  ...
       278                          3.8049993             103.5393
      -------------------------------------------------------------
                  HL-Gap            0.0326307 Eh            0.8879 eV
             Fermi-level           -0.2906168 Eh           -7.9081 eV

     #   Z          covCN         q      C6AA      α(0)
     1   7 N        2.553    -0.126    23.765     7.240
     2   6 C        2.954     0.073    26.360     8.421
     3   6 C        2.918    -0.045    29.111     8.848
     4   6 C        2.923    -0.023    28.587     8.768
     5   6 C        2.915    -0.046    29.132     8.851
     6   6 C        2.891     0.047    26.940     8.510
     7   1 H        0.926     0.053     2.278     2.360
     8   1 H        0.926     0.054     2.274     2.358
     9   1 H        0.926     0.045     2.383     2.414
    10   6 C        2.953     0.069    26.458     8.437
    11   7 N        2.554    -0.134    23.941     7.267
    12   6 C        2.888     0.040    27.097     8.534
    13   6 C        2.915    -0.046    29.151     8.854
    14   6 C        2.922    -0.027    28.684     8.783
    15   6 C        2.918    -0.046    29.130     8.851
    16   1 H        0.926     0.043     2.411     2.428
    17   1 H        0.926     0.048     2.344     2.394
    18   1 H        0.926     0.074     2.044     2.236
    19  77 Ir       5.944    -0.155   388.075    36.429
    20   1 H        0.977     0.088     1.897     2.152
    21   5 B        2.631     0.405    15.990     6.755
    22   8 O        1.638    -0.407    20.986     6.184
    23   6 C        3.835     0.130    18.454     6.112
    24   6 C        3.755    -0.121    22.884     6.821
    25   1 H        0.925     0.053     2.277     2.360
    26   1 H        0.925     0.045     2.385     2.415
    27   1 H        0.925     0.052     2.298     2.371
    28   6 C        3.754    -0.109    22.647     6.786
    29   1 H        0.925     0.047     2.352     2.398
    30   1 H        0.925     0.042     2.421     2.433
    31   1 H        0.925     0.027     2.623     2.533
    32   6 C        3.842     0.131    18.437     6.108
    33   8 O        1.637    -0.405    20.950     6.178
    34   6 C        3.755    -0.122    22.893     6.822
    35   1 H        0.925     0.053     2.281     2.362
    36   1 H        0.925     0.046     2.374     2.410
    37   1 H        0.925     0.050     2.320     2.382
    38   6 C        3.754    -0.120    22.855     6.817
    39   1 H        0.925     0.046     2.370     2.408
    40   1 H        0.925     0.054     2.274     2.358
    41   1 H        0.925     0.045     2.378     2.411
    42   5 B        2.628     0.407    15.982     6.756
    43   8 O        1.637    -0.375    20.381     6.094
    44   6 C        3.839     0.128    18.473     6.114
    45   6 C        3.754    -0.124    22.932     6.828
    46   1 H        0.925     0.055     2.254     2.348
    47   1 H        0.925     0.056     2.246     2.344
    48   1 H        0.925     0.049     2.332     2.388
    49   6 C        3.755    -0.122    22.898     6.823
    50   1 H        0.925     0.049     2.335     2.390
    51   1 H        0.925     0.048     2.343     2.394
    52   1 H        0.925     0.051     2.308     2.376
    53   6 C        3.835     0.128    18.478     6.116
    54   8 O        1.637    -0.384    20.554     6.120
    55   6 C        3.755    -0.125    22.946     6.830
    56   1 H        0.925     0.054     2.270     2.356
    57   1 H        0.925     0.054     2.274     2.358
    58   1 H        0.925     0.049     2.335     2.390
    59   6 C        3.755    -0.122    22.896     6.823
    60   1 H        0.925     0.047     2.353     2.399
    61   1 H        0.925     0.052     2.299     2.371
    62   1 H        0.925     0.047     2.353     2.399
    63   5 B        2.629     0.407    15.983     6.755
    64   8 O        1.638    -0.374    20.364     6.091
    65   6 C        3.834     0.125    18.531     6.124
    66   6 C        3.755    -0.129    23.035     6.843
    67   1 H        0.925     0.061     2.182     2.310
    68   1 H        0.925     0.052     2.291     2.367
    69   1 H        0.925     0.050     2.314     2.379
    70   6 C        3.755    -0.129    23.035     6.843
    71   1 H        0.925     0.061     2.184     2.311
    72   1 H        0.925     0.051     2.313     2.378
    73   1 H        0.925     0.051     2.304     2.374
    74   6 C        3.830     0.127    18.497     6.119
    75   8 O        1.637    -0.378    20.428     6.101
    76   6 C        3.755    -0.125    22.946     6.830
    77   1 H        0.925     0.051     2.306     2.375
    78   1 H        0.925     0.054     2.276     2.359
    79   1 H        0.925     0.057     2.239     2.340
    80   6 C        3.755    -0.122    22.889     6.822
    81   1 H        0.925     0.041     2.439     2.442
    82   1 H        0.925     0.048     2.345     2.395
    83   1 H        0.925     0.055     2.261     2.352
    84   1 H        0.926     0.051     2.313     2.378
    85   1 H        0.926     0.046     2.372     2.408
    86   6 C        2.802     0.061    26.623     8.453
    87   6 C        2.918    -0.043    29.070     8.842
    88   7 N        1.847    -0.244    27.210     7.731
    89   6 C        2.925    -0.024    28.593     8.769
    90   1 H        0.926     0.025     2.655     2.548
    91   6 C        2.944     0.094    25.912     8.349
    92   6 C        2.915    -0.063    29.577     8.918
    93   1 H        0.925     0.031     2.569     2.507
    94   6 C        3.811    -0.063    21.703     6.631
    95   1 H        0.926     0.034     2.527     2.486
    96   6 C        3.811    -0.066    21.750     6.638
    97   1 H        0.924     0.041     2.437     2.442
    98   1 H        0.924     0.052     2.294     2.368
    99   6 C        2.970     0.014    27.690     8.631
   100   1 H        0.924     0.062     2.179     2.308
   101   1 H        0.924     0.038     2.478     2.462
   102   6 C        2.925    -0.042    29.043     8.838
   103   6 C        2.925    -0.040    29.003     8.832
   104   6 C        2.918    -0.036    28.890     8.814
   105   1 H        0.926     0.030     2.593     2.518
   106   6 C        2.918    -0.035    28.883     8.813
   107   1 H        0.926     0.037     2.489     2.467
   108   6 C        2.920    -0.039    28.963     8.825
   109   1 H        0.926     0.029     2.599     2.521
   110   1 H        0.926     0.034     2.527     2.486
   111   1 H        0.926     0.029     2.597     2.520

 Mol. C6AA /au·bohr⁶  :     132768.405975
 Mol. C8AA /au·bohr⁸  :    3500026.416709
 Mol. α(0) /au        :        566.987409


Wiberg/Mayer (AO) data.
largest (>0.10) Wiberg bond orders for each atom

 ---------------------------------------------------------------------------
     #   Z sym  total        # sym  WBO       # sym  WBO       # sym  WBO
 ---------------------------------------------------------------------------
     1   7 N    3.405 --     6 C    1.386     2 C    1.304    19 Ir   0.451
     2   6 C    3.977 --     3 C    1.341     1 N    1.304    10 C    1.101
     3   6 C    3.987 --     4 C    1.490     2 C    1.341     9 H    0.962
                             6 C    0.106
     4   6 C    3.977 --     3 C    1.490     5 C    1.374    84 H    0.969
     5   6 C    3.977 --     6 C    1.465     4 C    1.374     8 H    0.969
     6   6 C    3.978 --     5 C    1.465     1 N    1.386     7 H    0.957
                             3 C    0.106
     7   1 H    0.997 --     6 C    0.957
     8   1 H    0.996 --     5 C    0.969
     9   1 H    0.997 --     3 C    0.962
    10   6 C    3.976 --    15 C    1.349    11 N    1.291     2 C    1.101
    11   7 N    3.398 --    12 C    1.373    10 C    1.291    19 Ir   0.438
    12   6 C    3.973 --    13 C    1.469    11 N    1.373    18 H    0.948
                            15 C    0.105
    13   6 C    3.981 --    12 C    1.469    14 C    1.372    17 H    0.969
    14   6 C    3.979 --    15 C    1.484    13 C    1.372    85 H    0.969
    15   6 C    3.989 --    14 C    1.484    10 C    1.349    16 H    0.962
                            12 C    0.105
    16   1 H    0.998 --    15 C    0.962
    17   1 H    0.997 --    13 C    0.969
    18   1 H    0.994 --    12 C    0.948
    19  77 Ir   5.201 --    63 B    0.859    42 B    0.851    21 B    0.707
                            86 C    0.597    20 H    0.534     1 N    0.451
                            11 N    0.438
    20   1 H    0.989 --    19 Ir   0.534    86 C    0.333
    21   5 B    3.271 --    33 O    1.110    22 O    1.096    19 Ir   0.707
    22   8 O    2.194 --    21 B    1.096    23 C    0.941
    23   6 C    3.943 --    24 C    0.996    28 C    0.990    22 O    0.941
                            32 C    0.941
    24   6 C    3.994 --    23 C    0.996    26 H    0.984    27 H    0.983
                            25 H    0.983
    25   1 H    0.997 --    24 C    0.983
    26   1 H    0.997 --    24 C    0.984
    27   1 H    0.997 --    24 C    0.983
    28   6 C    3.997 --    23 C    0.990    31 H    0.985    30 H    0.984
                            29 H    0.984
    29   1 H    0.997 --    28 C    0.984
    30   1 H    0.998 --    28 C    0.984
    31   1 H    0.999 --    28 C    0.985
    32   6 C    3.939 --    38 C    0.997    34 C    0.991    23 C    0.941
                            33 O    0.938
    33   8 O    2.199 --    21 B    1.110    32 C    0.938
    34   6 C    3.994 --    32 C    0.991    36 H    0.984    37 H    0.982
                            35 H    0.981
    35   1 H    0.997 --    34 C    0.981
    36   1 H    0.997 --    34 C    0.984
    37   1 H    0.997 --    34 C    0.982
    38   6 C    3.994 --    32 C    0.997    41 H    0.984    39 H    0.983
                            40 H    0.983
    39   1 H    0.998 --    38 C    0.983
    40   1 H    0.997 --    38 C    0.983
    41   1 H    0.997 --    38 C    0.984
    42   5 B    3.338 --    43 O    1.127    54 O    1.105    19 Ir   0.851
    43   8 O    2.235 --    42 B    1.127    44 C    0.936
    44   6 C    3.937 --    45 C    0.997    49 C    0.991    53 C    0.939
                            43 O    0.936
    45   6 C    3.993 --    44 C    0.997    48 H    0.983    47 H    0.982
                            46 H    0.982
    46   1 H    0.997 --    45 C    0.982
    47   1 H    0.997 --    45 C    0.982
    48   1 H    0.996 --    45 C    0.983
    49   6 C    3.994 --    44 C    0.991    50 H    0.984    51 H    0.982
                            52 H    0.980
    50   1 H    0.997 --    49 C    0.984
    51   1 H    0.997 --    49 C    0.982
    52   1 H    0.997 --    49 C    0.980
    53   6 C    3.937 --    55 C    0.997    59 C    0.992    44 C    0.939
                            54 O    0.933
    54   8 O    2.224 --    42 B    1.105    53 C    0.933
    55   6 C    3.993 --    53 C    0.997    58 H    0.983    57 H    0.983
                            56 H    0.982
    56   1 H    0.997 --    55 C    0.982
    57   1 H    0.997 --    55 C    0.983
    58   1 H    0.996 --    55 C    0.983
    59   6 C    3.994 --    53 C    0.992    62 H    0.983    61 H    0.983
                            60 H    0.978
    60   1 H    0.998 --    59 C    0.978
    61   1 H    0.996 --    59 C    0.983
    62   1 H    0.997 --    59 C    0.983
    63   5 B    3.365 --    75 O    1.121    64 O    1.115    19 Ir   0.859
    64   8 O    2.232 --    63 B    1.115    65 C    0.937
    65   6 C    3.936 --    70 C    0.997    66 C    0.991    74 C    0.938
                            64 O    0.937
    66   6 C    3.992 --    65 C    0.991    69 H    0.983    68 H    0.982
                            67 H    0.978
    67   1 H    0.996 --    66 C    0.978
    68   1 H    0.997 --    66 C    0.982
    69   1 H    0.996 --    66 C    0.983
    70   6 C    3.992 --    65 C    0.997    72 H    0.983    73 H    0.982
                            71 H    0.982
    71   1 H    0.996 --    70 C    0.982
    72   1 H    0.996 --    70 C    0.983
    73   1 H    0.997 --    70 C    0.982
    74   6 C    3.934 --    76 C    0.996    80 C    0.991    65 C    0.938
                            75 O    0.935
    75   8 O    2.237 --    63 B    1.121    74 C    0.935
    76   6 C    3.992 --    74 C    0.996    77 H    0.983    78 H    0.982
                            79 H    0.981
    77   1 H    0.996 --    76 C    0.983
    78   1 H    0.997 --    76 C    0.982
    79   1 H    0.997 --    76 C    0.981
    80   6 C    3.995 --    74 C    0.991    81 H    0.984    83 H    0.983
                            82 H    0.983
    81   1 H    0.998 --    80 C    0.984
    82   1 H    0.997 --    80 C    0.983
    83   1 H    0.996 --    80 C    0.983
    84   1 H    0.997 --     4 C    0.969
    85   1 H    0.997 --    14 C    0.969
    86   6 C    3.933 --    88 N    1.412    87 C    1.343    19 Ir   0.597
                            20 H    0.333
    87   6 C    3.988 --    89 C    1.456    86 C    1.343    90 H    0.963
                            91 C    0.108
    88   7 N    3.096 --    86 C    1.412    91 C    1.395
    89   6 C    3.988 --    87 C    1.456    92 C    1.424    93 H    0.968
    90   1 H    0.999 --    87 C    0.963
    91   6 C    3.971 --    92 C    1.397    88 N    1.395    94 C    1.006
                            87 C    0.108
    92   6 C    3.983 --    89 C    1.424    91 C    1.397    95 H    0.968
    93   1 H    0.998 --    89 C    0.968
    94   6 C    3.995 --    91 C    1.006    97 H    0.977    96 C    0.971
                            98 H    0.958
    95   1 H    0.996 --    92 C    0.968
    96   6 C    3.993 --    99 C    1.014   101 H    0.974    94 C    0.971
                           100 H    0.968
    97   1 H    0.997 --    94 C    0.977
    98   1 H    0.997 --    94 C    0.958
    99   6 C    3.988 --   102 C    1.413   103 C    1.408    96 C    1.014
                           108 C    0.110
   100   1 H    0.996 --    96 C    0.968
   101   1 H    0.998 --    96 C    0.974
   102   6 C    3.991 --   104 C    1.444    99 C    1.413   105 H    0.969
                           106 C    0.110
   103   6 C    3.991 --   106 C    1.449    99 C    1.408   107 H    0.968
                           104 C    0.111
   104   6 C    3.992 --   102 C    1.444   108 C    1.439   109 H    0.971
                           103 C    0.111
   105   1 H    0.999 --   102 C    0.969
   106   6 C    3.992 --   103 C    1.449   108 C    1.436   110 H    0.971
                           102 C    0.110
   107   1 H    0.999 --   103 C    0.968
   108   6 C    3.991 --   104 C    1.439   106 C    1.436   111 H    0.972
                            99 C    0.110
   109   1 H    0.999 --   104 C    0.971
   110   1 H    0.999 --   106 C    0.971
   111   1 H    0.999 --   108 C    0.972
 ---------------------------------------------------------------------------

Topologies differ in total number of bonds
Writing topology from bond orders to xtbtopo.mol

molecular dipole:
                 x           y           z       tot (Debye)
 q only:        0.343       0.319      -0.718
   full:       -1.279       0.523      -1.106       4.498
molecular quadrupole (traceless):
                xx          xy          yy          xz          yz          zz
 q only:       11.503       3.544      -3.008       1.163       9.833      -8.495
  q+dip:       11.722       8.864      -5.116      -2.153       9.522      -6.606
   full:        8.394       8.585      -2.386      -4.724       9.121      -6.008


           -------------------------------------------------
          | TOTAL ENERGY             -157.922949594579 Eh   |
          | GRADIENT NORM               0.034864279189 Eh/α |
          | HOMO-LUMO GAP               0.887926705104 eV   |
           -------------------------------------------------

------------------------------------------------------------------------
 * finished run on 2021/10/08 at 07:25:04.199     
------------------------------------------------------------------------
 total:
 * wall-time:     0 d,  0 h,  0 min,  0.185 sec
 *  cpu-time:     0 d,  0 h,  0 min,  1.080 sec
 * ratio c/w:     5.832 speedup
 SCF:
 * wall-time:     0 d,  0 h,  0 min,  0.136 sec
 *  cpu-time:     0 d,  0 h,  0 min,  0.807 sec
 * ratio c/w:     5.939 speedup

