111
 energy: -157.909903964436 gnorm: 0.076415390866 xtb: 6.4.0 (f63f532)
N        -0.96510000000000   -2.11529999999999   -0.24090000000000
C        -2.24699999999999   -1.69839999999998   -0.36219999999997
C        -3.14040000000000   -2.36820000000001   -1.21200000000001
C        -2.70219999999999   -3.47559999999997   -1.93050000000001
C        -1.37780000000003   -3.89880000000000   -1.78760000000001
C        -0.54290000000001   -3.18670000000000   -0.93510000000000
H         0.49810000000001   -3.45630000000000   -0.78940000000000
H        -0.99570000000000   -4.76030000000001   -2.32770000000000
H        -4.16500000000001   -2.02890000000000   -1.31830000000000
C        -2.62129999999999   -0.50949999999999    0.44099999999998
N        -1.62600000000000    0.07329999999997    1.16019999999999
C        -1.89679999999998    1.15239999999998    1.91689999999998
C        -3.17229999999999    1.70329999999999    1.99650000000003
C        -4.20510000000000    1.11740000000001    1.26269999999995
C        -3.92610000000001    0.00249999999997    0.47820000000002
H        -4.71960000000000   -0.46420000000001   -0.09519999999999
H        -3.34630000000000    2.57509999999997    2.62069999999999
H        -1.04450000000001    1.57420000000000    2.43689999999999
Ir        0.42150000000000   -0.81650000000000    0.91330000000000
H         0.87260000000000   -2.23030000000000    1.54050000000000
B         0.50670000000001    0.41560000000001   -0.81539999999999
O         0.19500000000000   -0.04700000000002   -2.09150000000000
C         0.00650000000002    1.10040000000000   -2.95429999999999
C         0.49020000000000    0.74739999999999   -4.35780000000001
H         1.51609999999997    0.37379999999999   -4.33700000000000
H         0.44730000000000    1.62240000000000   -5.01669999999999
H        -0.14740000000003   -0.03390000000001   -4.78429999999999
C        -1.50119999999998    1.39560000000000   -2.96670000000003
H        -1.75370000000000    2.21460000000002   -3.64850000000000
H        -2.03200000000000    0.49449999999999   -3.28929999999999
H        -1.85170000000000    1.65210000000000   -1.96219999999999
C         0.84229999999998    2.20669999999999   -2.22040000000002
O         0.75200000000000    1.78260000000001   -0.83689999999999
C         2.32930000000001    2.18620000000000   -2.59900000000000
H         2.74130000000000    1.18500000000000   -2.45750000000000
H         2.48870000000000    2.51300000000000   -3.63180000000000
H         2.87200000000000    2.86269999999999   -1.93200000000001
C         0.28440000000001    3.62290000000000   -2.33660000000001
H        -0.72650000000000    3.69040000000000   -1.92910000000000
H         0.92129999999999    4.31480000000000   -1.77609999999999
H         0.26429999999999    3.94810000000000   -3.38320000000001
B         1.56299999999999    0.60960000000000    1.84840000000000
O         2.92780000000001    0.55230000000000    2.15020000000000
C         3.36330000000001    1.88660000000000    2.50260000000001
C         4.53139999999999    1.78590000000000    3.47739999999999
H         4.27910000000000    1.16090000000001    4.33690000000001
H         5.39389999999998    1.33790000000000    2.97340000000000
H         4.82390000000001    2.77870000000001    3.83820000000000
C         3.79700000000000    2.56850000000000    1.19670000000000
H         4.20020000000000    3.57090000000000    1.37680000000000
H         4.56740000000000    1.95560000000000    0.72110000000000
H         2.95240000000000    2.63260000000000    0.50540000000000
C         2.05040000000001    2.50090000000000    3.09320000000000
O         1.03749999999998    1.81620000000000    2.31910000000001
C         1.89099999999999    4.00450000000001    2.88650000000001
H         1.87290000000000    4.25440000000000    1.82409999999999
H         0.94939999999999    4.34260000000000    3.33170000000000
H         2.71079999999999    4.55150000000000    3.36630000000000
C         1.82470000000005    2.13200000000000    4.56519999999999
H         1.92610000000000    1.05330000000000    4.71320000000000
H         2.52610000000002    2.65280000000000    5.22539999999999
H         0.80630000000002    2.41579999999999    4.84900000000000
B         2.27820000000000   -1.33089999999999    0.17410000000000
O         2.89460000000000   -2.57740000000000    0.38450000000001
C         4.26929999999999   -2.48200000000002   -0.07209999999997
C         5.10900000000001   -2.05379999999999    1.14010000000003
H         4.76350000000000   -1.08740000000000    1.51749999999999
H         4.98050000000000   -2.79469999999999    1.93590000000000
H         6.17420000000000   -1.99290000000000    0.89299999999999
C         4.71950000000001   -3.84659999999999   -0.58470000000002
H         4.75280000000000   -4.56130000000000    0.24420000000002
H         5.72329999999998   -3.78370000000000   -1.02010000000001
H         4.03500000000000   -4.23599999999999   -1.34170000000000
C         4.16440000000002   -1.36219999999999   -1.16300000000003
O         3.08519999999999   -0.55030000000000   -0.65400000000000
C         5.40719999999999   -0.48870000000000   -1.31549999999999
H         6.27320000000000   -1.09010000000000   -1.61529999999999
H         5.23300000000000    0.26930000000000   -2.08590000000000
H         5.64269999999999    0.02649999999999   -0.38239999999999
C         3.71800000000000   -1.89829999999999   -2.53110000000001
H         2.82529999999996   -2.52160000000000   -2.42740000000000
H         3.46090000000000   -1.05250000000000   -3.17550000000000
H         4.50570000000002   -2.48290000000001   -3.01790000000000
H        -3.38499999999999   -4.00130000000001   -2.59310000000001
H        -5.21400000000000    1.52080000000000    1.29960000000004
C         0.23589999999994   -1.68140000000000    2.96029999999997
C        -1.04623321630984   -2.02616113955360    3.38603820852794
N         1.25978868228081   -1.71033624048940    3.81183390818698
C        -1.25997571348616   -2.32060872968374    4.72335338689527
H        -1.87434475608189   -2.07634449135643    2.69183199412921
C         1.07817052522397   -2.04934296265824    5.08903470203426
C        -0.18201610989246   -2.34285344319585    5.59842385820624
H        -2.25489390934727   -2.56741235569096    5.07502319261636
C         2.33854428598494   -2.20816133476263    5.89429051829319
H        -0.31318683765491   -2.61111198653944    6.63804123103085
C         3.14518403719727   -3.37169064554133    5.30048640701792
H         2.10456373085500   -2.40045520374066    6.94520147615758
H         2.93520846661179   -1.29458142440277    5.82422165674353
C         4.45795738021011   -3.56518998154785    6.00851050117578
H         3.31338180790257   -3.14290886048738    4.24359407041508
H         2.54920195314648   -4.28766617979414    5.36357259288198
C         4.61554619153593   -4.55705811877774    6.97266175084737
C         5.54010500668317   -2.73762659694229    5.71644740539916
C         5.82801247547358   -4.72315407080099    7.62690603693930
H         3.78382361132408   -5.21048442737085    7.20794728464485
C         6.75174023976580   -2.89951911932456    6.37146072166530
H         5.42659925658137   -1.97026453475524    4.96046447297157
C         6.89881985564545   -3.89421661445923    7.32750677544226
H         5.93728376125103   -5.50350847430404    8.37004946252368
H         7.58526563007962   -2.25139240559250    6.13187570346141
H         7.84529100898330   -4.02494186522981    7.83656511942502
111
 energy: -157.916530925541 gnorm: 0.047143995813 xtb: 6.4.0 (f63f532)
N        -0.96243505710475   -2.09955258824099   -0.25189092853459
C        -2.24144617558397   -1.68976463977552   -0.36501662092709
C        -3.13592798207632   -2.36278413719406   -1.20661375280369
C        -2.70498982369403   -3.46402713524219   -1.92180339590702
C        -1.38444452084312   -3.88267600320893   -1.78221508898477
C        -0.55452294444848   -3.16764012307581   -0.94106849879197
H         0.47925604362319   -3.44748127330821   -0.79085990521912
H        -1.00771216138340   -4.74268579601961   -2.31729404798564
H        -4.15640380369376   -2.02740939698810   -1.31117912401322
C        -2.61228985978041   -0.51195530684589    0.43249857833268
N        -1.61936604680398    0.06670366708167    1.14670169894970
C        -1.89781732239467    1.13993141554116    1.89182822205186
C        -3.16439120171307    1.68895679543040    1.97985247713706
C        -4.19655725058411    1.10431862761450    1.25337244006730
C        -3.91516261835294   -0.00122746145381    0.47213044454688
H        -4.70683083069316   -0.46511479223311   -0.09603169130915
H        -3.33955071232988    2.55143548609062    2.60764118060312
H        -1.05482651553649    1.55745735428252    2.42178789493531
Ir        0.42150000000000   -0.81650000000000    0.91330000000000
H         0.87260000000000   -2.23030000000000    1.54050000000000
B         0.48795684242501    0.42868193505828   -0.78746484468540
O         0.17525789199109   -0.03346248059603   -2.05962052910545
C         0.01128301473995    1.09661378814505   -2.94296182799278
C         0.49067221421151    0.74581183873798   -4.34758022477704
H         1.50961060321828    0.36913197846845   -4.32590734305673
H         0.44597404486613    1.62089923993000   -4.99659922011856
H        -0.14805979031327   -0.03024234752726   -4.76792037247372
C        -1.49291197233794    1.39878672500585   -2.97051651588960
H        -1.73120358313767    2.21132838305779   -3.65521826370733
H        -2.02271526433715    0.50138567107728   -3.29011059654717
H        -1.84001288430120    1.65403820807233   -1.96914403497114
C         0.83275658535913    2.20753509144121   -2.21301631988800
O         0.75478404748865    1.78374751513884   -0.83508333406146
C         2.31534279078102    2.19022278788850   -2.60002396598816
H         2.71912254644813    1.19106387502488   -2.44907157961053
H         2.46729100747560    2.51095352786043   -3.62997081680500
H         2.85749866979186    2.86507230761391   -1.93873108214361
C         0.28121756033477    3.62339757751947   -2.34128704518298
H        -0.72212990942415    3.69229559090029   -1.92906662938145
H         0.92070361731060    4.30702728457341   -1.78446932183791
H         0.26378622452824    3.93527747729422   -3.38565879997621
B         1.56789218640820    0.60814024516587    1.86749801177095
O         2.92966764858556    0.56482341728227    2.13351524526712
C         3.36354333371177    1.88619813209012    2.50910084034833
C         4.53307932874798    1.78981302232078    3.47993531872564
H         4.27902725954375    1.16066551703128    4.32874117561738
H         5.38789729703379    1.34547594295701    2.97210628379983
H         4.81539940189496    2.78001635650374    3.83704667382674
C         3.79907343824272    2.57510036189938    1.21111228464278
H         4.20008786400439    3.57102746522849    1.39503603299680
H         4.56312390156482    1.96369063507331    0.73413540645756
H         2.95093289772787    2.62687126571753    0.52975377500241
C         2.05319524731641    2.50362380309802    3.08964488279393
O         1.04152985909058    1.80382713851982    2.33858399770672
C         1.89289148148561    4.00588955960697    2.88838015543191
H         1.86770385546175    4.24923116716514    1.83002576078590
H         0.95546026316050    4.33565555562755    3.33469471336393
H         2.71324489314609    4.54270011355742    3.36429394214703
C         1.83222135513217    2.13925926416149    4.56159246551720
H         1.93420986571205    1.06265025006301    4.69461601844420
H         2.53348622287900    2.65999554515285    5.21135800986260
H         0.81751646331254    2.41795935237245    4.84612736842834
B         2.27820000000000   -1.33089999999999    0.17410000000000
O         2.89886874335507   -2.56260680746560    0.38717478362495
C         4.26475327917712   -2.48337691502579   -0.07682549998344
C         5.10790648639521   -2.05855976724718    1.12967871575888
H         4.74891112274827   -1.10035960205123    1.50260346309599
H         4.97646402685692   -2.79450327111470    1.92184245795844
H         6.16608680197305   -1.99821553985379    0.87864939748575
C         4.72018302002715   -3.84554836450245   -0.58655578134094
H         4.74966896743323   -4.54954594755159    0.24380235217483
H         5.71826158397368   -3.77400881518716   -1.01803593569037
H         4.03520535611427   -4.23359452089549   -1.33572946462990
C         4.16632293745827   -1.36055570917812   -1.15732381648727
O         3.07323545342377   -0.56375068808578   -0.66304298305811
C         5.40961790084123   -0.49233980817536   -1.31477872117136
H         6.26584004281832   -1.09837298800565   -1.60992326844229
H         5.23171358561256    0.25864858162093   -2.08334122817028
H         5.63659083661100    0.02190413298072   -0.38548746757705
C         3.72999039838085   -1.90012387660737   -2.52559902520749
H         2.83789105981016   -2.51551314690143   -2.41693242398217
H         3.47278382881833   -1.05886775159535   -3.16786028082789
H         4.52009501157100   -2.47753730053398   -3.00281564631370
H        -3.38391627889273   -3.98897235925101   -2.58005092741028
H        -5.20078204952879    1.50486184864798    1.29497341584522
C         0.23589999999994   -1.68140000000000    2.96029999999997
C        -1.04945255150324   -2.02554791927789    3.38764130093334
N         1.25532980517237   -1.71117595644883    3.81032205195322
C        -1.26052389860300   -2.31849199405621    4.72450976356719
H        -1.87695808757585   -2.07569533418656    2.69454997833120
C         1.07726821413522   -2.04779480690215    5.08350692212718
C        -0.18151358373178   -2.34005929533290    5.59603846268098
H        -2.25375643893071   -2.56434187903675    5.07811823152238
C         2.33638033056053   -2.20467148133290    5.89025897293488
H        -0.31043478676570   -2.60631921265155    6.63517201873597
C         3.14819858324690   -3.37093550814608    5.30116622068128
H         2.10237214091190   -2.39544510723058    6.93976432895114
H         2.93236243110366   -1.29291380113313    5.82094231735017
C         4.45856933156108   -3.56287882787568    6.00976841258543
H         3.31635971265191   -3.14422602425351    4.24571681196079
H         2.55281211412367   -4.28548949489547    5.36500465628704
C         4.61637217355891   -4.55274452504929    6.97256440991854
C         5.53946613046091   -2.73774376755461    5.71767601639461
C         5.82671967855718   -4.71915804688469    7.62547886326041
H         3.78610753819877   -5.20507896144709    7.20801632423203
C         6.74900209745462   -2.89917596478185    6.37086485530693
H         5.42655512932384   -1.97214971279713    4.96280780642135
C         6.89621768205109   -3.89191422774920    7.32640417586956
H         5.93582640843568   -5.49807050543046    8.36771423793729
H         7.58147637379009   -2.25245572796060    6.13112922750841
H         7.84159667459781   -4.02279726095637    7.83417074549287
111
 energy: -157.918246010271 gnorm: 0.036855308584 xtb: 6.4.0 (f63f532)
N        -0.95560939694746   -2.08897107100474   -0.26338858299499
C        -2.23331845452109   -1.68135931187915   -0.37101381499983
C        -3.13310728086115   -2.35579507019771   -1.20555471504223
C        -2.71000871916906   -3.45464474973931   -1.92020917624812
C        -1.38936865841572   -3.87304663507693   -1.78404786866052
C        -0.55983071877233   -3.15671425674304   -0.94921194925252
H         0.47274033750195   -3.43981784548601   -0.80618921105458
H        -1.01809343770428   -4.73300550847192   -2.31656744714848
H        -4.15278573454969   -2.02266079992996   -1.30146225372315
C        -2.60049547775612   -0.51257468007895    0.42158074990290
N        -1.61000249848891    0.06043984955796    1.13887518580629
C        -1.89507190455818    1.12911812902107    1.87819723684070
C        -3.15677612230686    1.67916756426849    1.96814079385634
C        -4.18975651754171    1.09508208700534    1.24183905184713
C        -3.90387357855328   -0.00317242758838    0.46011351180975
H        -4.69267759904357   -0.46809086695900   -0.10675519589076
H        -3.33271049797653    2.53721864523785    2.59622019125163
H        -1.05709317161240    1.55173070399455    2.40895487190217
Ir        0.42150000000000   -0.81650000000000    0.91330000000000
H         0.87260000000000   -2.23030000000000    1.54050000000000
B         0.49408541161349    0.44300745492955   -0.76219518251037
O         0.15633998414670   -0.02182741604147   -2.02580078256027
C         0.00786508273669    1.09392953780137   -2.92165890243301
C         0.49272645478441    0.73580828678017   -4.32302685495575
H         1.50783378638274    0.35531102714179   -4.30164973208197
H         0.44856812183262    1.61336933382904   -4.96314668553924
H        -0.14998289346923   -0.03431105754903   -4.74155328182314
C        -1.49455721970600    1.40565839032158   -2.97063424115730
H        -1.71387369102241    2.21368933497888   -3.66208318099559
H        -2.02331484471427    0.51030945338208   -3.29086853479536
H        -1.84527181462536    1.66521354751728   -1.97394867761841
C         0.82593722125586    2.20860543093601   -2.20038545011426
O         0.75894832418717    1.79201528955421   -0.82635689578434
C         2.30604920208754    2.19510103295538   -2.59709339544354
H         2.70620694926300    1.19747760713241   -2.43773517248742
H         2.44518065633389    2.50700992891639   -3.62832752559362
H         2.84829559494704    2.87489594655325   -1.94468898792056
C         0.27203892586829    3.62280609850382   -2.34065341484795
H        -0.72730343449963    3.69785686912482   -1.92540538142972
H         0.91640617828046    4.30564558539194   -1.79373285822885
H         0.25559357072707    3.91680089509613   -3.38675179591973
B         1.57697201547369    0.61585159167295    1.86559184662747
O         2.93067390217282    0.57713067387601    2.11840919626075
C         3.36347202362217    1.88803930906065    2.51100321148393
C         4.53016676507726    1.78998903710268    3.48586115731891
H         4.27780057671908    1.15515851092164    4.32783517245528
H         5.38297974504279    1.35347865892027    2.97390778551109
H         4.80217697143016    2.77930173165097    3.84269152135466
C         3.80405734203982    2.58916971964774    1.22137652754118
H         4.20099110396306    3.58118054667183    1.41417945307572
H         4.56747982560949    1.98080031440733    0.74436921753441
H         2.95455954649653    2.63525559304657    0.54444284916798
C         2.05359794116479    2.50100030710516    3.09086721290456
O         1.04387348500306    1.79287486702345    2.35404916433692
C         1.89305990785742    4.00302996173718    2.88756933730619
H         1.85993357189806    4.24486757084069    1.83128690745235
H         0.96049943461254    4.32857458266482    3.34023167518728
H         2.71686331563373    4.53150556113378    3.35874905818838
C         1.84415893857791    2.14361379298492    4.56699144940441
H         1.94756484077046    1.06801407882126    4.69074313674332
H         2.54819422154456    2.66632560031210    5.20656194692678
H         0.83184460391007    2.41973508862480    4.85365607677051
B         2.27820000000000   -1.33089999999998    0.17410000000000
O         2.89928582530314   -2.55089911380564    0.39471315095930
C         4.25651552368271   -2.48186560897182   -0.07625420827141
C         5.10745277896469   -2.06069142966370    1.12529397187087
H         4.74065456458300   -1.10707650440474    1.49658921167617
H         4.97736102293305   -2.79659871917470    1.91418247981553
H         6.16007960052657   -1.99958605652620    0.86657883907853
C         4.71232984364142   -3.84379421992896   -0.58774496951369
H         4.74390802252538   -4.54075308229036    0.24460473511395
H         5.70667691089086   -3.76287228975490   -1.01736890497716
H         4.02806733150351   -4.23412366192213   -1.33279487899487
C         4.16212808194036   -1.36103612282844   -1.15498302207007
O         3.06143043396930   -0.57317254530420   -0.67142317865884
C         5.40703958823363   -0.49465518616360   -1.30719136306885
H         6.25551199956045   -1.10833448381506   -1.59601262842423
H         5.23133209026163    0.24952814084487   -2.07887295441883
H         5.62965871842893    0.02156515790508   -0.38074856989250
C         3.74153235902416   -1.90478377553162   -2.52719745745495
H         2.85036338046576   -2.51730516942364   -2.41787713018048
H         3.48849361440786   -1.06563783929521   -3.17033945281527
H         4.53813057860267   -2.47816870017541   -2.99070738670355
H        -3.39032730043316   -3.98090904212362   -2.57142962436897
H        -5.19282683163680    1.49062392393864    1.28831850238838
C         0.23589999999993   -1.68140000000001    2.96029999999996
C        -1.05240494820031   -2.02332751402184    3.38913958692260
N         1.25240881284699   -1.71155047665456    3.80883456229621
C        -1.26067222439800   -2.31377767219272    4.72637633040083
H        -1.87992478414462   -2.07282087945411    2.69693314311584
C         1.07788615547121   -2.04470958107828    5.08010198281138
C        -0.18034769577704   -2.33510012184051    5.59582841001725
H        -2.25305530415745   -2.55793066594432    5.08220337987351
C         2.33591111424940   -2.19933556787816    5.88777530509117
H        -0.30745994470699   -2.59924163676414    6.63501469860953
C         3.14933129272641   -3.36872560632386    5.30097619335686
H         2.10107487443929   -2.38852356149909    6.93640328148890
H         2.93191805823848   -1.28891138691184    5.81671351177898
C         4.45760097762710   -3.55845761874363    6.01079993116514
H         3.31810290995874   -3.14424738955666    4.24606727531224
H         2.55352986132910   -4.28192097689605    5.36728981619581
C         4.61533997169814   -4.54698262346979    6.97370921386723
C         5.53851778987531   -2.73499202560225    5.71790313514931
C         5.82508819423399   -4.71390262654076    7.62578066241239
H         3.78555524254307   -5.19839774913049    7.20992163529576
C         6.74743670300756   -2.89649071734874    6.36988028013722
H         5.42627199222447   -1.97078863825739    4.96290359676624
C         6.89471561308138   -3.88822671104509    7.32585104056512
H         5.93401793714528   -5.49198477874869    8.36775280499259
H         7.57981407687502   -2.25129252103624    6.12919489849433
H         7.83970950428393   -4.01942701200893    7.83260079155402
111
 energy: -157.918818209996 gnorm: 0.036502129318 xtb: 6.4.0 (f63f532)
N        -0.94818685701600   -2.08523310852035   -0.27442043154813
C        -2.22672693220714   -1.67748397224757   -0.37751661788762
C        -3.13157546553196   -2.35305922075831   -1.20724738919350
C        -2.71388239201822   -3.45255225290234   -1.92249798291108
C        -1.39103329072777   -3.87040737230763   -1.79254203030291
C        -0.55770807488309   -3.15249254145911   -0.96260832522469
H         0.47513194742523   -3.43856947045245   -0.82489429752525
H        -1.02375392838897   -4.73167246462206   -2.32476490586130
H        -4.15153660761171   -2.01897950287830   -1.29657300606772
C        -2.59164054810107   -0.51143083340267    0.41340783309636
N        -1.60176871429830    0.06035315963018    1.13367766735255
C        -1.88996766045144    1.12920811156693    1.87071829829218
C        -3.15183062902098    1.67793569049412    1.96142647841073
C        -4.18540973994584    1.09269825646403    1.23388822615003
C        -3.89599445565622   -0.00208267519761    0.45017894101844
H        -4.68191884537584   -0.46691984425297   -0.12063342686771
H        -3.32922692488759    2.53397127597450    2.59078139164968
H        -1.05497333421608    1.55332337829978    2.40564465244647
Ir        0.42150000000000   -0.81650000000000    0.91330000000000
H         0.87260000000000   -2.23030000000000    1.54050000000000
B         0.47821505587711    0.46041761358809   -0.74144093366683
O         0.13525330278040   -0.01171747563260   -2.00071074399681
C         0.00017043958278    1.09483472024308   -2.90439332049884
C         0.49359995173168    0.72424171483623   -4.30036116751094
H         1.50612201157912    0.33759545956389   -4.27140158775204
H         0.45733575329481    1.60071214053507   -4.94189418208719
H        -0.15211527179254   -0.04349594182899   -4.71827580648084
C        -1.50101139811052    1.41452026599527   -2.97078496908832
H        -1.70526708220700    2.21988494433064   -3.66944224908875
H        -2.03033618170082    0.52018499901707   -3.29231471929561
H        -1.86076617535109    1.68141661755273   -1.97935462660220
C         0.81917233251371    2.21232984780559   -2.18810303517579
O         0.75907777101302    1.80410353924335   -0.81431768789002
C         2.29814644873508    2.19898710958077   -2.59247173505766
H         2.69980739552408    1.20319858196364   -2.42570747314111
H         2.42929246739472    2.50185579745687   -3.62708057416063
H         2.84156344656617    2.88633878947087   -1.94913904488012
C         0.26443334938774    3.62620174794910   -2.33808483429426
H        -0.73319479334714    3.70586511689182   -1.91987392227671
H         0.91212106662156    4.31399225002577   -1.80141639395006
H         0.24432278815361    3.90665856682672   -3.38764276948530
B         1.57883402730297    0.61122652506615    1.88005781795526
O         2.93407702329475    0.58257966149819    2.10700984962208
C         3.36395329969997    1.88892834529153    2.51174912139566
C         4.52995098947184    1.78768927062433    3.48868662020177
H         4.27895574473888    1.14595235604190    4.32568660822462
H         5.38558940345819    1.35935078842198    2.97471583895176
H         4.79452110524653    2.77641590111624    3.85201590192487
C         3.80789454156482    2.60321444025813    1.22928647154279
H         4.20046924593592    3.59445229940289    1.43243645021981
H         4.57538074393412    2.00092718911641    0.75110185242544
H         2.96007395548750    2.65097899546180    0.55073248058305
C         2.05420576086616    2.49831906471618    3.09606804955993
O         1.04366593201637    1.78307339221190    2.37105147243201
C         1.88995688785607    4.00024465801409    2.88859478552998
H         1.84824386703909    4.23954174788549    1.83200706188047
H         0.96117448485668    4.32612523965645    3.34851565357345
H         2.71825784342663    4.52799888701020    3.35205728113876
C         1.85537184817427    2.14707200400720    4.57615307416374
H         1.96087210750059    1.07205445903993    4.70067299522643
H         2.56395859185231    2.67313701213278    5.20712123877091
H         0.84471544812333    2.42292043632664    4.86801527196123
B         2.27819999999999   -1.33089999999998    0.17410000000001
O         2.89902554992600   -2.54565341957513    0.40279897289759
C         4.25124168421911   -2.48164114162103   -0.07407906206757
C         5.10863086390720   -2.06177709441200    1.12433157821048
H         4.74048900672535   -1.10966465871325    1.49784436015560
H         4.98223405640777   -2.79973689661794    1.91175403672379
H         6.15910450117797   -1.99894759442643    0.85983528109474
C         4.70440873456175   -3.84517057159358   -0.58633236926729
H         4.73906564453411   -4.54036033664910    0.24712930790651
H         5.69701742520748   -3.76123767388030   -1.01851111573421
H         4.01833473972344   -4.23663212272309   -1.32896605212331
C         4.15898869549311   -1.36218844242712   -1.15441768595988
O         3.05343835942924   -0.57786386312592   -0.67989175389853
C         5.40444359989821   -0.49456023535711   -1.30025066820281
H         6.25265528376940   -1.11202373489024   -1.58094537013702
H         5.23387241352750    0.24609361155873   -2.07629791028805
H         5.62135597874490    0.02460846317093   -0.37423882132289
C         3.75171193542731   -1.90942103109887   -2.53029961100061
H         2.86088520135218   -2.52302907404516   -2.42695907170990
H         3.50456168547350   -1.07169367715314   -3.17744582827504
H         4.55484139337654   -2.48196958338883   -2.98261454572593
H        -3.39765479366906   -3.97954300386305   -2.56922932905636
H        -5.18923838683232    1.48532506903648    1.28178093328955
C         0.23589999999992   -1.68140000000003    2.96029999999994
C        -1.05364223117265   -2.02054240634373    3.39049868218319
N         1.25179145656220   -1.71062268152659    3.80795928890466
C        -1.26036068413497   -2.30788864664898    4.72849891628480
H        -1.88169521168098   -2.06935030230412    2.69899826172104
C         1.07882229868337   -2.03996397307307    5.07984947177990
C        -0.17936133150533   -2.32858580099940    5.59739855228946
H        -2.25272602018155   -2.54987230963171    5.08610902623526
C         2.33675556037042   -2.19352189698726    5.88703465618782
H        -0.30581162184180   -2.59069377943538    6.63705469872118
C         3.14895542281867   -3.36520395749869    5.30139756267849
H         2.10207499136347   -2.38109430432174    6.93572071039210
H         2.93362489473950   -1.28402366853751    5.81335689999883
C         4.45672700405985   -3.55424977585341    6.01121768186094
H         3.31745202009011   -3.14255780022522    4.24617102512549
H         2.55203392357797   -4.27734084218907    5.37009729442218
C         4.61400349003089   -4.54146876763993    6.97555712555176
C         5.53807761233827   -2.73155760031421    5.71724519711030
C         5.82385931877156   -4.70839026879181    7.62753882312976
H         3.78377572304271   -5.19185353189113    7.21307439482328
C         6.74706607353870   -2.89297018613870    6.36906175819094
H         5.42611755222863   -1.96803440844957    4.96152638619582
C         6.89413330624797   -3.88394371600419    7.32610775031192
H         5.93247886047829   -5.48577946339500    8.37022297815231
H         7.57984441479751   -2.24877710518740    6.12726587040461