21
 energy: -31.954425600744 gnorm: 0.049223431584 xtb: 6.4.1 (1a32961)
S        -1.44788000000000   -0.20236000000000    1.45013000000000
C        -1.76124000000000    1.31888000000000    0.74684000000000
C        -1.33053000000000    1.37912000000000   -0.55608000000000
C        -0.70594000000000    0.16566000000000   -0.96598000000000
C        -0.61611000000000   -0.77462000000000    0.04831000000000
C         0.00138000000000   -2.16659000000000   -0.00567000000000
S         1.35563000000000   -2.31622000000000   -1.22701000000000
C         2.50564000000000   -1.10039000000000   -0.53110000000000
C         2.95783000000000   -1.35644000000000    0.90047000000000
C         1.90782000000000   -1.64987000000000    1.96662000000000
S         0.62615000000000   -2.86390000000000    1.55716000000000
H        -2.26960000000000    2.08782000000000    1.31141000000000
H        -1.45548000000000    2.24876000000000   -1.18799000000000
H        -0.30872000000000    0.01512000000000   -1.96671000000000
H        -0.79078000000000   -2.84301000000000   -0.34542000000000
H         2.07708000000000   -0.09902000000000   -0.62633000000000
H         3.39175000000000   -1.10583000000000   -1.17678000000000
H         3.51199000000000   -0.46594000000000    1.23003000000000
H         3.69498000000000   -2.16875000000000    0.89645000000000
H         1.42726000000000   -0.72470000000000    2.29611000000000
H         2.42799000000000   -2.04382000000000    2.84815000000000
21
 energy: -31.960451858423 gnorm: 0.021282068011 xtb: 6.4.1 (1a32961)
S        -1.37244618980443   -0.19800706796982    1.48749950211503
C        -1.76347265420448    1.29273950853368    0.73889255466343
C        -1.33121061819539    1.34961906873589   -0.55156773229673
C        -0.67014264489003    0.16412919137934   -0.94948353582680
C        -0.60142586423251   -0.77184474389604    0.04720600880710
C        -0.00361859930432   -2.14752585327218   -0.02000374932627
S         1.34314399823301   -2.27093544719864   -1.24967872833391
C         2.49946883531971   -1.07646302279351   -0.52072332937164
C         2.97227695538823   -1.37558631259907    0.89919067306725
C         1.90044487476793   -1.61336063971804    1.96200901563419
S         0.59611167671991   -2.81302186928502    1.56726659867925
H        -2.27255846347313    2.05572191125768    1.29834291067893
H        -1.45861275191512    2.21059100585547   -1.18537011311867
H        -0.27501006954608    0.01252288555182   -1.94115453548024
H        -0.76625277641533   -2.86101192777270   -0.35033357040289
H         2.04098370821989   -0.08698762531691   -0.59649301540267
H         3.36505534642254   -1.09935270918053   -1.18837125899301
H         3.54023542813784   -0.49737321867694    1.22899187856927
H         3.66573466645009   -2.22409805062079    0.87964009759309
H         1.40692011612049   -0.68369206334403    2.25666559818891
H         2.38359502620116   -2.03216301966966    2.85008473055640
21
 energy: -31.962604825697 gnorm: 0.010160711509 xtb: 6.4.1 (1a32961)
S        -1.34504891014014   -0.21006808671571    1.50023513234624
C        -1.74602385035296    1.28009557834297    0.74273424146713
C        -1.32160644192704    1.33391653553892   -0.54267520557105
C        -0.65819667062577    0.15589443932245   -0.94411591407524
C        -0.58749737975036   -0.77349428325071    0.04459503747884
C        -0.00166915540144   -2.13390459682998   -0.02837292545381
S         1.34426612632556   -2.24782197444697   -1.25662317781974
C         2.49865572144170   -1.05250936706068   -0.51140751914599
C         2.97946759408844   -1.39797213573854    0.89601729971925
C         1.89240973980317   -1.57758928149817    1.95689009761492
S         0.58226879918404   -2.78455074881039    1.57286669132292
H        -2.27130078899267    2.02956302558463    1.29897276192790
H        -1.47055529052355    2.18249629187956   -1.18472200843893
H        -0.26124475587177    0.00321933174103   -1.92996393853280
H        -0.74236765907082   -2.87129365134353   -0.35655577470370
H         2.01446353539566   -0.07281678162947   -0.54643380341063
H         3.34775697956216   -1.06294864881516   -1.19562774486717
H         3.59295155397336   -0.55238705476108    1.22794008726754
H         3.61224280389027   -2.29372420119966    0.85731923122785
H         1.39895620674588   -0.63174066726666    2.19795938843196
H         2.34129184224628   -1.98846372304285    2.86357804321451
21
 energy: -31.963913496873 gnorm: 0.012963347103 xtb: 6.4.1 (1a32961)
S        -1.33430975448725   -0.22254908931505    1.50426300949322
C        -1.74124865402440    1.27082761087414    0.74680227786473
C        -1.32370665746641    1.32514192468942   -0.53847052974008
C        -0.65403369229467    0.15079345851913   -0.94401891097660
C        -0.58331768533337   -0.78178091256483    0.03989238467043
C         0.00286151564865   -2.13375725858645   -0.03402095118395
S         1.35198963655921   -2.23584112505546   -1.25946711728375
C         2.49867260083648   -1.03359469367365   -0.50043251507421
C         2.98511172450686   -1.42531516431858    0.89209110566904
C         1.88777488224353   -1.54434331756248    1.95037539953628
S         0.58147854185395   -2.76775497067634    1.57926524120221
H        -2.26776268013325    2.01300410044588    1.30962077343906
H        -1.47942122399246    2.17006222470098   -1.18289202006518
H        -0.24864993003787    0.00072495048641   -1.92631689846324
H        -0.72460821600164   -2.88330270456443   -0.36281704543864
H         1.99312351922583   -0.06342608856601   -0.49296511650699
H         3.33681000509975   -1.01171180941589   -1.19510620886207
H         3.65890933685981   -0.62401772395311    1.22809774189053
H         3.55349296413965   -2.36608377590165    0.83445099516792
H         1.39535975677659   -0.58225581308713    2.13164440145740
H         2.31069401002102   -1.92091982247493    2.88261398320389
21
 energy: -31.964961526714 gnorm: 0.013197781626 xtb: 6.4.1 (1a32961)
S        -1.34238770556262   -0.23693955478899    1.50015840673123
C        -1.74177240465678    1.26487208882804    0.75146483770059
C        -1.32507857179539    1.32327333419203   -0.53434395869449
C        -0.65824636529648    0.14738233533794   -0.94629676273055
C        -0.58454100793663   -0.79071956930903    0.03530816418037
C         0.01337765501002   -2.13848771279641   -0.03595940577618
S         1.36506019783429   -2.22820651601950   -1.26139540127961
C         2.50100895253948   -1.01993188633320   -0.48718150026312
C         2.98976430018171   -1.45691918010115    0.88769604313099
C         1.88688518467685   -1.51389119802630    1.94039025114723
S         0.59026552637236   -2.75783688110484    1.58745020800806
H        -2.26727822435056    2.00144828999223    1.32335968294219
H        -1.48206827905023    2.16793605838753   -1.17923981320018
H        -0.24653831828670    0.00052374167512   -1.92775862279381
H        -0.70632518916325   -2.89365246864787   -0.36518302275918
H         1.97546920294767   -0.06194632826861   -0.43825832917472
H         3.33103004358269   -0.95294993273020   -1.18874450930150
H         3.72576048865825   -0.70923809969415    1.22763230106592
H         3.49179721690383   -2.43288259907972    0.81347502358187
H         1.39438466445883   -0.54056032396242    2.05773861839802
H         2.28865263293264   -1.83737359755052    2.90229778908685
21
 energy: -31.965445715855 gnorm: 0.007533787190 xtb: 6.4.1 (1a32961)
S        -1.35755447226580   -0.24457581148017    1.49425013916760
C        -1.75086176621974    1.26169531886971    0.75258116962314
C        -1.33017690906845    1.32474888128509   -0.53369058616132
C        -0.66461814910478    0.14744208777831   -0.94777672436124
C        -0.59101039108904   -0.79513803649213    0.03313451262523
C         0.02010605940241   -2.14277923369307   -0.03465829719291
S         1.37340316493016   -2.22235505753169   -1.26095371295276
C         2.50652876250756   -1.01711196494743   -0.47839991152025
C         2.99347543328598   -1.47563785669150    0.88591392322136
C         1.89080222446566   -1.49968183465803    1.93244898112202
S         0.59976933457231   -2.75186455296820    1.59282224559421
H        -2.27147003663096    1.99833145553423    1.33053750411530
H        -1.47920728762390    2.17400541980237   -1.17528525696338
H        -0.25085377245868    0.00349801765286   -1.93024339788724
H        -0.69829514106170   -2.89846725152839   -0.36351946799322
H         1.97525561146256   -0.06688161671555   -0.41077559713427
H         3.33384708661141   -0.92248388275525   -1.17962674479329
H         3.75820858510198   -0.76392449243027    1.22602377491484
H         3.45671800167438   -2.46291803998966    0.80483255231277
H         1.40010465949816   -0.52665975768507    2.01666377617673
H         2.28504900201047   -1.78534179135618    2.90833111808666
21
 energy: -31.965587653113 gnorm: 0.005279198202 xtb: 6.4.1 (1a32961)
S        -1.37148090717651   -0.24880119707937    1.49021987897447
C        -1.76501316322768    1.25742692036958    0.75137554331099
C        -1.33797121892331    1.32518760658454   -0.53346358315653
C        -0.66972663299102    0.14953578081197   -0.94719026349819
C        -0.59608635272414   -0.79390981169440    0.03313411825304
C         0.02585492034317   -2.13977591954435   -0.03204706373664
S         1.37741540630939   -2.21154555241075   -1.26161214847802
C         2.51438934454283   -1.01555542950927   -0.47353184688676
C         3.00132148269001   -1.48865888271600    0.88590474759804
C         1.89571131578127   -1.48970490704263    1.92913518336247
S         0.60410385446134   -2.74080405063779    1.59849513501218
H        -2.28728795044070    1.99353410417614    1.32929572722014
H        -1.48255815934726    2.17808153072406   -1.17190899561446
H        -0.25665145478152    0.00818596317434   -1.93053226751322
H        -0.69061708453560   -2.89811740187820   -0.36017750616910
H         1.98595398080005   -0.06604744171634   -0.39732066219090
H         3.33985156365006   -0.91524394662284   -1.17462789997460
H         3.78780473804767   -0.80310231472297    1.22534903393645
H         3.43208167666606   -2.49192349977504    0.79787777202684
H         1.40818584920380   -0.51573113622011    1.99368427295757
H         2.28393879165209   -1.75913041427059    2.91055082456621
21
 energy: -31.965663615733 gnorm: 0.002573699612 xtb: 6.4.1 (1a32961)
S        -1.38005164319166   -0.24875066173810    1.48888544005888
C        -1.77962358150658    1.25422383818170    0.75011130686330
C        -1.34693877043640    1.32615731550616   -0.53312701949210
C        -0.67088889157421    0.15462856112911   -0.94466906327096
C        -0.59797794320690   -0.78899114850992    0.03511381792072
C         0.02906085407004   -2.13436368294869   -0.02898323995276
S         1.37800530538851   -2.20459449907089   -1.26133346408563
C         2.52369866904349   -1.01963078750311   -0.47382304045407
C         3.00657642167980   -1.49855422455937    0.88557571913168
C         1.90053183834996   -1.48706069970652    1.92861143606398
S         0.60601626561459   -2.73246444770468    1.60133568891340
H        -2.30801608598545    1.98918915466340    1.32429604562109
H        -1.49097588852875    2.18148306810859   -1.16886105506436
H        -0.25752550266053    0.01662928297926   -1.92825254401823
H        -0.68689914264487   -2.89390834794078   -0.35634192491750
H         2.00202172877546   -0.06645947611725   -0.39482309136265
H         3.34948696112599   -0.92347174099068   -1.17435476899779
H         3.79832660070297   -0.82711030543867    1.22293358855512
H         3.42244649659178   -2.50312519353627    0.79694772204734
H         1.41649194590717   -0.51119194634769    1.98112405716806
H         2.28545436248556   -1.74873405845561    2.91224438927248
21
 energy: -31.965722177087 gnorm: 0.002883396055 xtb: 6.4.1 (1a32961)
S        -1.38685355871202   -0.24878524503034    1.48860944411343
C        -1.79523818539826    1.25019880994542    0.74873708731518
C        -1.35772629707503    1.32627765630275   -0.53264658191832
C        -0.67108891694152    0.16042743885915   -0.94197630737213
C        -0.59795881806778   -0.78301532930009    0.03721682185905
C         0.03132220818968   -2.12716589925072   -0.02634176592549
S         1.37757475348599   -2.19700465709102   -1.26109557778409
C         2.53286989054068   -1.02232841647042   -0.47433062616838
C         3.01208129031713   -1.50731731147116    0.88530391896420
C         1.90433891880737   -1.48196473189734    1.92813909881057
S         0.60569352454036   -2.72249770942631    1.60446777602759
H        -2.33280282644246    1.98216812410831    1.31824632559045
H        -1.50571970273423    2.18187923296697   -1.16698487087152
H        -0.25380558331101    0.02672461803571   -1.92428635361507
H        -0.68338007489087   -2.88836435235523   -0.35315678575111
H         2.02150526516321   -0.06301478861242   -0.39480593305591
H         3.35966292690514   -0.93596343888944   -1.17501349843236
H         3.81795219282313   -0.85137505911580    1.22228309311689
H         3.40814315584102   -2.52140172731026    0.79395891737603
H         1.42643495618553   -0.50294125930786    1.97308940522515
H         2.28621488077391   -1.74063595468992    2.91319641249586
21
 energy: -31.965763404408 gnorm: 0.002380823948 xtb: 6.4.1 (1a32961)
S        -1.39137987963977   -0.24831464222861    1.48892043997997
C        -1.80658278805997    1.24783328902289    0.74823375880681
C        -1.36529938296095    1.32738301027774   -0.53144497423383
C        -0.67051057520869    0.16614518868742   -0.93962180061310
C        -0.59577408401353   -0.77714576603053    0.03927247834178
C         0.03214814005361   -2.12075564008210   -0.02467693852574
S         1.37606841797846   -2.19481917139476   -1.26113399468040
C         2.53975537300231   -1.02708062142803   -0.47653988900766
C         3.01459719698448   -1.51175428888790    0.88499999666783
C         1.90685931621977   -1.48017110110446    1.92819035468904
S         0.60413503607051   -2.71702552093063    1.60595046382771
H        -2.35266179096397    1.97628183750101    1.31390014045998
H        -1.51961572309182    2.18151586995575   -1.16591753969421
H        -0.24748112805545    0.03626253966690   -1.91982495959955
H        -0.68311412658726   -2.88139162628858   -0.35128648932474
H         2.03932849830763   -0.06088807515311   -0.40250159578463
H         3.36878482083139   -0.95390417918323   -1.17715110043375
H         3.82415178233542   -0.86037538308103    1.22149731562630
H         3.40376214648146   -2.52822617774121    0.79495700095766
H         1.43358006257464   -0.49866795023846    1.97364065689116
H         2.28846868774173   -1.74100159133907    2.91314667564940
21
 energy: -31.965792602882 gnorm: 0.001430329182 xtb: 6.4.1 (1a32961)
S        -1.39758330992601   -0.24805196526709    1.48888876335811
C        -1.82018004048759    1.24563294389469    0.74752566142215
C        -1.37425453862777    1.32936094049077   -0.53018853183199
C        -0.67025744163216    0.17315200052732   -0.93711631275572
C        -0.59401829582132   -0.77102078641956    0.04091857331403
C         0.03215711449046   -2.11453935599028   -0.02350706774908
S         1.37489364658868   -2.19354975686743   -1.26066500047772
C         2.54837197382201   -1.03303913102060   -0.47882756790465
C         3.01752104867076   -1.51719058207532    0.88467390563151
C         1.91042214267913   -1.47792277778761    1.92796033260029
S         0.60328671731685   -2.71153362179065    1.60726718339169
H        -2.37364697083930    1.96989410977225    1.31098878029699
H        -1.53402892363882    2.18198560439635   -1.16503995190242
H        -0.24060341751322    0.04705519051497   -1.91484436017726
H        -0.68456581629986   -2.87405491262981   -0.34967148475477
H         2.05852956150463   -0.06010983681186   -0.41105841913641
H         3.37965047508844   -0.97298263892630   -1.17950275367369
H         3.83038279907206   -0.86913605072661    1.22055573698880
H         3.40052648766151   -2.53599359403557    0.79712213166775
H         1.44075954092474   -0.49386414873634    1.97358019650072
H         2.29185724696678   -1.74019163051133    2.91355018519170
21
 energy: -31.965808892239 gnorm: 0.001136876705 xtb: 6.4.1 (1a32961)
S        -1.40713120250904   -0.24810199528678    1.48768628022768
C        -1.83578433275753    1.24396124928050    0.74615889149976
C        -1.38360136523618    1.33249780860474   -0.52907465675422
C        -0.67073994406529    0.18111125475643   -0.93449233345418
C        -0.59303569495176   -0.76440178037124    0.04231834292433
C         0.03327978261782   -2.10777120959884   -0.02196400750719
S         1.37391180998088   -2.19267039638799   -1.26104459254763
C         2.55747366721323   -1.04027957678817   -0.48045843202782
C         3.02149844169808   -1.52358565301193    0.88447392474132
C         1.91521229676620   -1.47560206177953    1.92683230844509
S         0.60285267248439   -2.70578808242867    1.60977401407943
H        -2.39706811981728    1.96301451179415    1.30856409577335
H        -1.54693689237588    2.18397074144133   -1.16450798290232
H        -0.23508661782144    0.05839635346868   -1.90998474417247
H        -0.68554870119666   -2.86589527710270   -0.34711371731414
H         2.07762197794746   -0.06174325141526   -0.41823262143370
H         3.39014234095602   -0.99168818400021   -1.18090291526456
H         3.83795283789275   -0.87904197857786    1.21944803423464
H         3.39853151046725   -2.54441553060358    0.80009647075487
H         1.44910354339444   -0.48995277564282    1.97250752884409
H         2.29657198931254   -1.73811416635027    2.91252611185368
21
 energy: -31.965814975589 gnorm: 0.000980628613 xtb: 6.4.1 (1a32961)
S        -1.41277181333688   -0.24881173428917    1.48660398100198
C        -1.84306067587808    1.24313985265358    0.74519200486249
C        -1.38764397603250    1.33391408499988   -0.52863967839833
C        -0.67094539375878    0.18452838371234   -0.93309697718283
C        -0.59394832451233   -0.76215979477437    0.04257336430478
C         0.03317838515155   -2.10547973431539   -0.02150882885240
S         1.37381534443486   -2.19145198240491   -1.26038045072346
C         2.56179219679904   -1.04287777908109   -0.48039984388455
C         3.02460239901634   -1.52838368189891    0.88419940944987
C         1.91836910411419   -1.47393533331829    1.92611907976019
S         0.60386742072852   -2.70237887447199    1.61065439920667
H        -2.40754371118515    1.95951493404352    1.30785547615718
H        -1.55024625163460    2.18568896690829   -1.16394483037158
H        -0.23327768131035    0.06340875104725   -1.90793753135718
H        -0.68609291799033   -2.86374533524112   -0.34579821246829
H         2.08363077379490   -0.06389618402186   -0.41666320555181
H         3.39352112206890   -0.99524802542359   -1.18147174693843
H         3.84409598627419   -0.88703337933405    1.21835364578165
H         3.39730766578698   -2.55124124415751    0.80073621111918
H         1.45296285088353   -0.48691532592298    1.96607914327597
H         2.29760749658602   -1.73273656470965    2.91408459080892
21
 energy: -31.965818217893 gnorm: 0.000508151006 xtb: 6.4.1 (1a32961)
S        -1.41776124198082   -0.24886773382427    1.48536075839272
C        -1.84865757529093    1.24295711492509    0.74355195381736
C        -1.38999182608960    1.33511594120050   -0.52893759261045
C        -0.67041057658319    0.18695507755486   -0.93198094301087
C        -0.59469376191557   -0.76028436809386    0.04314174024697
C         0.03343540576293   -2.10352169083895   -0.02026252014134
S         1.37294242631967   -2.19083076957904   -1.26001684267906
C         2.56357228101000   -1.04490123920755   -0.48034336748414
C         3.02682342864957   -1.53080227237787    0.88397531242083
C         1.92079982224714   -1.47401554342844    1.92546721471282
S         0.60407261480646   -2.70036152584929    1.61208677853174
H        -2.41605926466779    1.95739553055028    1.30579662128385
H        -1.55128726836002    2.18728190129547   -1.16424037850545
H        -0.23104588028794    0.06705931852230   -1.90629686340724
H        -0.68631147244815   -2.86177323429031   -0.34358976606432
H         2.08663161811714   -0.06585301860812   -0.41462894357267
H         3.39423886232560   -0.99766518606468   -1.18206966640824
H         3.84753056107381   -0.89091283256579    1.21739761880300
H         3.39840299086521   -2.55400695393617    0.80096682988767
H         1.45739437027278   -0.48728132826172    1.96444358129027
H         2.29959448617370   -1.73178718712243    2.91278847449657
21
 energy: -31.965819223630 gnorm: 0.000279444303 xtb: 6.4.1 (1a32961)
S        -1.42034745730532   -0.24926202157393    1.48484700005219
C        -1.85140127143475    1.24253374341894    0.74296534779134
C        -1.39054669654969    1.33563741444363   -0.52864878708873
C        -0.66957147168517    0.18813817909844   -0.93113813854960
C        -0.59450245133393   -0.75928436366799    0.04380565271428
C         0.03373096739669   -2.10242568001370   -0.01951606118183
S         1.37225191114715   -2.19065904904037   -1.26008633275617
C         2.56395148475617   -1.04588612432690   -0.48054203558630
C         3.02777114028329   -1.53221513100562    0.88359282978194
C         1.92174285904132   -1.47407252104056    1.92539516546486
S         0.60411315863830   -2.69953322009794    1.61277756274761
H        -2.42083854766909    1.95601609934999    1.30435917115167
H        -1.55206780922603    2.18777134631218   -1.16396583487403
H        -0.22855403899559    0.06931824451511   -1.90483334212352
H        -0.68626032686562   -2.86056952218550   -0.34241240769699
H         2.08827420732954   -0.06624822549922   -0.41420384161039
H         3.39433661734577   -0.99949065675801   -1.18280243490184
H         3.84894752552015   -0.89265785122033    1.21653889337314
H         3.39905547796533   -2.55562008755929    0.80061418346442
H         1.45921443396832   -0.48639930298155    1.96248685802346
H         2.29992028767315   -1.73119127016738    2.91337655180450
21
 energy: -31.965819737701 gnorm: 0.000225720205 xtb: 6.4.1 (1a32961)
S        -1.42280626655838   -0.24951958940284    1.48446480600390
C        -1.85407309862836    1.24206465437014    0.74228795859414
C        -1.39112459520734    1.33601004771005   -0.52848315850334
C        -0.66826419046015    0.18937401248606   -0.93014399988525
C        -0.59446972413109   -0.75841359964368    0.04455688837328
C         0.03306465457736   -2.10176739119037   -0.01882445610144
S         1.37140528037661   -2.19057202961405   -1.25934177072300
C         2.56451721295634   -1.04668120591879   -0.48111306502059
C         3.02829122803596   -1.53278539976302    0.88313298151849
C         1.92260779579427   -1.47424516311889    1.92548852556281
S         0.60431710492494   -2.69882588836271    1.61302560285380
H        -2.42529244009299    1.95492268399891    1.30253985861007
H        -1.55275351613472    2.18812710287197   -1.16372811440876
H        -0.22520197771692    0.07164545408994   -1.90299250416750
H        -0.68730135839439   -2.85975938016630   -0.34130222610699
H         2.09020170404693   -0.06634462959061   -0.41522195837989
H         3.39494385356584   -1.00177407083184   -1.18364300272676
H         3.84964627571035   -0.89312577719415    1.21569362312828
H         3.39954245502922   -2.55644970541022    0.80023041959196
H         1.46088601437047   -0.48631626940904    1.96268276939810
H         2.30108358793607   -1.73166385591056    2.91330082238871
