21
 energy: -31.965819738377 gnorm: 0.000225759085 xtb: 6.4.1 (1a32961)
S        -1.42280626655838   -0.24951958940284    1.48446480600390
C        -1.85407309862836    1.24206465437014    0.74228795859414
C        -1.39112459520734    1.33601004771005   -0.52848315850334
C        -0.66826419046015    0.18937401248606   -0.93014399988525
C        -0.59446972413109   -0.75841359964368    0.04455688837328
C         0.03306465457736   -2.10176739119037   -0.01882445610144
S         1.37140528037661   -2.19057202961405   -1.25934177072300
C         2.56451721295634   -1.04668120591879   -0.48111306502059
C         3.02829122803596   -1.53278539976302    0.88313298151849
C         1.92260779579427   -1.47424516311889    1.92548852556281
S         0.60431710492494   -2.69882588836271    1.61302560285380
H        -2.42529244009299    1.95492268399891    1.30253985861007
H        -1.55275351613472    2.18812710287197   -1.16372811440876
H        -0.22520197771692    0.07164545408994   -1.90299250416750
H        -0.68730135839439   -2.85975938016630   -0.34130222610699
H         2.09020170404693   -0.06634462959061   -0.41522195837989
H         3.39494385356584   -1.00177407083184   -1.18364300272676
H         3.84964627571035   -0.89312577719415    1.21569362312828
H         3.39954245502922   -2.55644970541022    0.80023041959196
H         1.46088601437047   -0.48631626940904    1.96268276939810
H         2.30108358793607   -1.73166385591056    2.91330082238871
