27
 energy: -37.380711938839 gnorm: 0.052245521060 xtb: 6.4.0 (f63f532)
C         0.56429000000000    0.62646000000000   -1.25243000000000
C         0.92330000000000    1.19665000000000   -0.03769000000000
C         0.55181000000000    0.54251000000000    1.12362000000000
N        -0.14198000000000   -0.61760000000000    1.14530000000000
C        -0.49683000000000   -1.15644000000000   -0.04677000000000
C        -1.27911000000000   -2.44532000000000   -0.00636000000000
C        -0.35675000000000   -3.66572000000000   -0.00166000000000
C        -1.12751000000000   -4.95986000000000    0.11480000000000
C        -1.53786000000000   -5.65829000000000   -1.02876000000000
C        -2.25612000000000   -6.85035000000000   -0.91096000000000
C        -2.57508000000000   -7.35401000000000    0.34919000000000
C        -2.17760000000000   -6.66474000000000    1.49290000000000
C        -1.46043000000000   -5.47203000000000    1.37700000000000
C        -0.15417000000000   -0.56729000000000   -1.26186000000000
H         0.83795000000000    1.10934000000000   -2.18617000000000
H         1.47765000000000    2.12764000000000    0.00377000000000
H         0.80723000000000    0.94644000000000    2.09885000000000
H        -1.97097000000000   -2.48482000000000   -0.85759000000000
H        -1.90761000000000   -2.44214000000000    0.89346000000000
H         0.36064000000000   -3.60083000000000    0.82751000000000
H         0.25281000000000   -3.68691000000000   -0.91457000000000
H        -1.29679000000000   -5.28188000000000   -2.02018000000000
H        -2.56645000000000   -7.38915000000000   -1.80278000000000
H        -3.13270000000000   -8.28208000000000    0.44010000000000
H        -2.42491000000000   -7.05497000000000    2.47640000000000
H        -1.15750000000000   -4.94436000000000    2.27914000000000
H        -0.44424000000000   -1.02124000000000   -2.20345000000000
27
 energy: -37.383838604685 gnorm: 0.019229969512 xtb: 6.4.0 (f63f532)
C         0.56331510284370    0.61871616936698   -1.25635909707633
C         0.91776620283213    1.18111048688517   -0.03977863524263
C         0.54201851678997    0.51944606383974    1.11546005833631
N        -0.14636238494751   -0.62046333823134    1.12520557660204
C        -0.49522309059723   -1.15777718880888   -0.04816784950595
C        -1.27665931950499   -2.44357313578168    0.00243180397068
C        -0.35495864434811   -3.66847201818149   -0.00029226028112
C        -1.13213934499493   -4.95565361021531    0.11626570952918
C        -1.53897107567766   -5.65259541830740   -1.01752181669925
C        -2.25223312226967   -6.83683895627366   -0.90365066559134
C        -2.57022189078962   -7.34020116576855    0.34762891773451
C        -2.17533748924528   -6.65207918042686    1.48377954161294
C        -1.46268756849257   -5.46815182058630    1.36758310083004
C        -0.15244403677483   -0.56839059832141   -1.26102336946227
H         0.83491789566325    1.10135976721694   -2.18607198100836
H         1.46900280241574    2.10905669896135    0.00930026772995
H         0.79184687485204    0.91313563079803    2.09347754796021
H        -1.95197424689898   -2.49337373625845   -0.85743634136395
H        -1.88532832722124   -2.45087899857545    0.91141777305392
H         0.34399801551826   -3.58644023139814    0.83832431600702
H         0.23637146361095   -3.67738450523133   -0.92236166671141
H        -1.29222173954853   -5.27579625798369   -2.00158815939583
H        -2.55763139687756   -7.37220766669018   -1.79318530745700
H        -3.12251053970796   -8.26637635070141    0.43729794125356
H        -2.41908000189427   -7.04111657775795    2.46346725044407
H        -1.15565493162515   -4.94159691492650    2.26171032962670
H        -0.44652772310996   -1.02444714664221   -2.19510298489570
27
 energy: -37.384246749830 gnorm: 0.004283650497 xtb: 6.4.0 (f63f532)
C         0.56058321315678    0.60940032102921   -1.25833295213670
C         0.91469859395905    1.16788353101531   -0.03944546287665
C         0.53450875352439    0.50159776832007    1.11369475056930
N        -0.15242918379924   -0.62796815224653    1.11398858995418
C        -0.50187745097344   -1.16367898739177   -0.05005042146105
C        -1.28332846102110   -2.44606636108721    0.00445311304864
C        -0.34815498663726   -3.66731184635454    0.00050231475626
C        -1.12567191690926   -4.95033200656981    0.11744445269728
C        -1.53327744952849   -5.64476540674987   -1.01415090457139
C        -2.24839651084716   -6.82459097394918   -0.90248055784193
C        -2.56797691330058   -7.32801300357227    0.34649381512275
C        -2.17347043715092   -6.64016144323004    1.48130720232665
C        -1.45923007054787   -5.46084580961211    1.36562787452620
C        -0.15656570593061   -0.57446877077129   -1.26339959127301
H         0.83317039336645    1.09179992465281   -2.18593537341287
H         1.46710223633898    2.09297234535134    0.01449070281375
H         0.78411411391640    0.88892568703130    2.09368404664716
H        -1.95589949692540   -2.50280586935300   -0.85421133121377
H        -1.87593818538172   -2.45651158330600    0.92061092506910
H         0.34314322799819   -3.57797532131370    0.84135333603506
H         0.23364473641098   -3.67060693678402   -0.92465315898798
H        -1.28440275403187   -5.26447857048161   -1.99468637868876
H        -2.55216588227733   -7.35697793874192   -1.79222296385599
H        -3.11932148889556   -8.25279785465415    0.43521812352816
H        -2.41803390111387   -7.02755952212401    2.45964705427455
H        -1.15142119681689   -4.93216474333231    2.25605029848913
H        -0.45233327658266   -1.03348847577466   -2.19418750353808
27
 energy: -37.384312878432 gnorm: 0.002389852276 xtb: 6.4.0 (f63f532)
C         0.55888072489250    0.60306788767344   -1.25826052566524
C         0.91487420314272    1.16018197228250   -0.03877048700247
C         0.53209485615063    0.49391264525691    1.11455817059072
N        -0.15951877801123   -0.63184625886984    1.11190796675818
C        -0.51087845730476   -1.16644588940457   -0.05128030721103
C        -1.28900047881224   -2.44912769020919    0.00503299249450
C        -0.34383404464782   -3.66507206380525    0.00009868262398
C        -1.11803587853689   -4.94821397333751    0.11764036029111
C        -1.52729775967116   -5.64086332519921   -1.01464255305754
C        -2.24581735944893   -6.81862717151703   -0.90344352727351
C        -2.56750626003039   -7.32109139690052    0.34582336890944
C        -2.17243695909325   -6.63376470226184    1.48132367821694
C        -1.45464154484028   -5.45662482340778    1.36620634746731
C        -0.16205320019835   -0.57846956248180   -1.26524211652044
H         0.83370819422858    1.08492093800830   -2.18542183959572
H         1.47009438379851    2.08323470631311    0.01609011103608
H         0.78347416845544    0.87942484252325    2.09483694466687
H        -1.96292922279766   -2.51240786367128   -0.85102799360977
H        -1.87563981796062   -2.46279040828137    0.92402731469038
H         0.34577760028048   -3.57004259437668    0.84075034047568
H         0.23590194206406   -3.66384470999792   -0.92539679440682
H        -1.27663266953272   -5.25895584533391   -1.99426059970295
H        -2.55102328235007   -7.34908095172353   -1.79380711116511
H        -3.12157529807716   -8.24406527230880    0.43422519927455
H        -2.42010342139585   -7.01945003815671    2.45956965742339
H        -1.14649842150797   -4.92643004436687    2.25582267237273
H        -0.45831321879557   -1.03851840644587   -2.19554995208127
27
 energy: -37.384350183971 gnorm: 0.001411411652 xtb: 6.4.0 (f63f532)
C         0.55676010973406    0.59686743060193   -1.25785139809467
C         0.91515740886099    1.15286914583504   -0.03838549706781
C         0.52953549533419    0.48833120874085    1.11545353756329
N        -0.16684788156684   -0.63512873121662    1.11173097365893
C        -0.51955947688544   -1.16895622958959   -0.05212130097465
C        -1.29447592374041   -2.45206023219269    0.00632743108283
C        -0.34005342638489   -3.66239387729082   -0.00031726811304
C        -1.11035772876920   -4.94653051442055    0.11749067942730
C        -1.52060124210864   -5.63787290847393   -1.01577414680293
C        -2.24289093804008   -6.81366369164964   -0.90480155371919
C        -2.56756893118286   -7.31423153921106    0.34489808333493
C        -2.17175430430405   -6.62778291285709    1.48119297181557
C        -1.45002979541950   -5.45270400112878    1.36673231383102
C        -0.16801440966474   -0.58235858479324   -1.26659879262812
H         0.83436238130194    1.07787082563343   -2.18492199002268
H         1.47492423271769    2.07320342617900    0.01635699372001
H         0.78433717495469    0.87209061008839    2.09554089518054
H        -1.97112313402666   -2.52182737059146   -0.84656173623285
H        -1.87669565564977   -2.46935120381159    0.92766147285777
H         0.34943411220303   -3.56211788204225    0.83945019196258
H         0.23874009419311   -3.65636562356172   -0.92599884397412
H        -1.26742198755101   -5.25515855095923   -1.99473185752093
H        -2.54961148236275   -7.34279143851820   -1.79568081730515
H        -3.12516403217430   -8.23522093856427    0.43310998399038
H        -2.42317745039527   -7.01173568834213    2.45941599111692
H        -1.14141309110394   -4.92137228675347    2.25591047295103
H        -0.46542011796937   -1.04259844111033   -2.19671679003696
27
 energy: -37.384366271174 gnorm: 0.001149913780 xtb: 6.4.0 (f63f532)
C         0.55499305424780    0.59162809364555   -1.25775119461612
C         0.91640991767862    1.14642065305508   -0.03879010657370
C         0.52813794270790    0.48471046237574    1.11558036288660
N        -0.17270349827878   -0.63654276242573    1.11284108205826
C        -0.52673846386073   -1.16969567629701   -0.05156956458955
C        -1.29821431934115   -2.45399948411231    0.00876218235500
C        -0.33767919049910   -3.65987886605286   -0.00050663117590
C        -1.10434585043256   -4.94567069622392    0.11699319523761
C        -1.51403964612157   -5.63666237501618   -1.01680408410618
C        -2.23981110211477   -6.81040236394724   -0.90603642264594
C        -2.56820544633863   -7.30846562416961    0.34371231822028
C        -2.17154704511425   -6.62311008862685    1.48040163743231
C        -1.44622432618724   -5.45015040250808    1.36643411262255
C        -0.17423018608180   -0.58476402867111   -1.26642953117467
H         0.83467969325624    1.07137344796789   -2.18506912954255
H         1.48073273063913    2.06411608781040    0.01506691625368
H         0.78388690478769    0.86851345818309    2.09530180493546
H        -1.97751468619962   -2.52780695930602   -0.84170923687450
H        -1.87783299107059   -2.47440716454955    0.93170812721271
H         0.35268220363120   -3.55668696206974    0.83828327125571
H         0.24039720898098   -3.64982908340855   -0.92674633029702
H        -1.25804816313278   -5.25444328304173   -1.99529063481770
H        -2.54728290374312   -7.33906938776480   -1.79704278809356
H        -3.12991620306829   -8.22711177739929    0.43178346366290
H        -2.42611758812879   -7.00567725454292    2.45846123966690
H        -1.13708404066789   -4.91858437190534    2.25538945686875
H        -0.47331400554790   -1.04479359099891   -2.19616351616137
27
 energy: -37.384374068756 gnorm: 0.000535022972 xtb: 6.4.0 (f63f532)
C         0.55388469334789    0.58864932099949   -1.25816090209097
C         0.91737436141064    1.14310285515813   -0.03973383219683
C         0.52655771474078    0.48438810972032    1.11524006224934
N        -0.17547593386098   -0.63599936293637    1.11418602530476
C        -0.52972702418857   -1.16976139721765   -0.04982613379013
C        -1.29976343399720   -2.45491419390870    0.01133108581225
C        -0.33675954613759   -3.65828843850499   -0.00046445431702
C        -1.10149375985776   -4.94533813336176    0.11646516191332
C        -1.50962186411657   -5.63681084503706   -1.01738146870386
C        -2.23745047933448   -6.80917856626316   -0.90688627827206
C        -2.56912043718525   -7.30533479938308    0.34262210617062
C        -2.17180300548690   -6.62075879225744    1.47939830938457
C        -1.44440889016915   -5.44918843123875    1.36565749072222
C        -0.17830620348799   -0.58587389043524   -1.26511090650377
H         0.83453175902235    1.06677120403856   -2.18595497462016
H         1.48582635017987    2.05832311346683    0.01308049835705
H         0.78344142404638    0.86819183007960    2.09467840015736
H        -1.98034231907044   -2.52928901712824   -0.83827447662241
H        -1.87820988257658   -2.47679423793433    0.93511568048147
H         0.35454883155651   -3.55494642741245    0.83769596177046
H         0.24030631327491   -3.64609658538664   -0.92748861959374
H        -1.25133768401326   -5.25593592170118   -1.99569447308758
H        -2.54453997498980   -7.33805453373839   -1.79781519666017
H        -3.13403212819033   -8.22202494845756    0.43047809662053
H        -2.42796592442398   -7.00255140977850    2.45725377292266
H        -1.13490565978179   -4.91810725255843    2.25464806627194
H        -0.48013729671068   -1.04516924882298   -2.19424900167986
27
 energy: -37.384378369775 gnorm: 0.000481138153 xtb: 6.4.0 (f63f532)
C         0.55267037515183    0.58550559144820   -1.25881492606827
C         0.91994380877878    1.13947964741242   -0.04125243710783
C         0.52710196696068    0.48410558268134    1.11482737661780
N        -0.17799105454843   -0.63437730325119    1.11605407330958
C        -0.53376511944930   -1.16891890539497   -0.04700129599070
C        -1.30125327465229   -2.45581238026936    0.01499069453017
C        -0.33584543010036   -3.65668844012051   -0.00041869711342
C        -1.09840219935139   -4.94527073550716    0.11580462961241
C        -1.50453469970691   -5.63744960387456   -1.01816652020210
C        -2.23459589098978   -6.80842771397741   -0.90810554101479
C        -2.57029330356379   -7.30255906500317    0.34109595285151
C        -2.17274260598483   -6.61852589212811    1.47808120012398
C        -1.44306450443596   -5.44838842894906    1.36469113622162
C        -0.18363084189004   -0.58653332516621   -1.26316371040547
H         0.83385492303235    1.06141200560548   -2.18744583209610
H         1.49202841628834    2.05246389722981    0.01001785595048
H         0.78210445404993    0.87045273956460    2.09376605535517
H        -1.98337843830203   -2.53020608888256   -0.83349145094518
H        -1.87805696430871   -2.47962541913146    0.93981293926305
H         0.35683200071728   -3.55367717792523    0.83674950550184
H         0.23955429860492   -3.64200610077680   -0.92849454368973
H        -1.24363844686340   -5.25825159948963   -1.99639684240921
H        -2.54064822015184   -7.33771735182120   -1.79908358528240
H        -3.13841120863986   -8.21725416541785    0.42852953819897
H        -2.43070034810412   -6.99941212331333    2.45575417361130
H        -1.13370118656187   -4.91772799814692    2.25392561723650
H        -0.48836650597920   -1.04557964539513   -2.19145536605921
27
 energy: -37.384379779409 gnorm: 0.000317795046 xtb: 6.4.0 (f63f532)
C         0.55155773673481    0.58303603363334   -1.25929132650909
C         0.92077800496357    1.13749308084576   -0.04251889225264
C         0.52598854565206    0.48497297691581    1.11457939050991
N        -0.17954198466575   -0.63318827129442    1.11734813334521
C        -0.53574116570533   -1.16909466635945   -0.04483739470317
C        -1.30249374732394   -2.45638418304546    0.01813364296307
C        -0.33508781368295   -3.65563424809321   -0.00031836570507
C        -1.09647502748621   -4.94490531657088    0.11540083873206
C        -1.50097206303261   -5.63763787655695   -1.01880336247396
C        -2.23215530431638   -6.80797543571629   -0.90919623382805
C        -2.57062617526411   -7.30091093413026    0.33975202164794
C        -2.17370011197696   -6.61687443696305    1.47700361646760
C        -1.44285055160970   -5.44743281107029    1.36407688733975
C        -0.18678485617780   -0.58765793509790   -1.26189718210772
H         0.83294736053866    1.05732673859980   -2.18864872674037
H         1.49667289723540    2.04817905705084    0.00743546209811
H         0.78344558208863    0.87135554721115    2.09292450313941
H        -1.98609394282899   -2.53100896714805   -0.82912062413094
H        -1.87736072817793   -2.48167197854154    0.94408120398297
H         0.35871148833531   -3.55272410501860    0.83590965821070
H         0.23875342205880   -3.63898502489413   -0.92925573259768
H        -1.23816685490173   -5.25936355654368   -1.99690550604490
H        -2.53738540779348   -7.33737575748731   -1.80039955589631
H        -3.14057279346402   -8.21447577395268    0.42674408221683
H        -2.43347504353683   -6.99688583381482    2.45454925343203
H        -1.13406805013882   -4.91674470883930    2.25353273476548
H        -0.49423341552369   -1.04642161311842   -2.18946852586122
27
 energy: -37.384380425386 gnorm: 0.000146465255 xtb: 6.4.0 (f63f532)
C         0.55122740783871    0.58246365085793   -1.25948713318667
C         0.92113932226994    1.13713814169355   -0.04303897398262
C         0.52669181993182    0.48501114246716    1.11437982856553
N        -0.17936222507732   -0.63281779442382    1.11766986516380
C        -0.53609522264156   -1.16898142685491   -0.04419314265440
C        -1.30269795045645   -2.45621105858610    0.01938272350828
C        -0.33513871305320   -3.65549356152409   -0.00018360193595
C        -1.09642189947848   -4.94475738579790    0.11535913945958
C        -1.50031623089569   -5.63764898749323   -1.01895719359354
C        -2.23140966431137   -6.80805811342164   -0.90959627014990
C        -2.57040612300838   -7.30090672847735    0.33921327064369
C        -2.17427089817759   -6.61659810740775    1.47656792804224
C        -1.44349550110697   -5.44711236759073    1.36391216843386
C        -0.18737835696644   -0.58798557464724   -1.26160270537454
H         0.83250299929542    1.05637692997972   -2.18910823168379
H         1.49708335857264    2.04776644238390    0.00644514813864
H         0.78415619599538    0.87200229189800    2.09244917934885
H        -1.98708860409632   -2.53092112525766   -0.82720016646917
H        -1.87658530913003   -2.48180140290176    0.94589574883820
H         0.35914795805166   -3.55281071854001    0.83565418655995
H         0.23809013009874   -3.63834295304597   -0.92946932486463
H        -1.23714029480474   -5.25935979128887   -1.99694667986176
H        -2.53609426107848   -7.33754451638533   -1.80094206558149
H        -3.14008045898836   -8.21464855502640    0.42601902685146
H        -2.43456781496486   -6.99645243703166    2.45403159127387
H        -1.13534140480978   -4.91618287562470    2.25344280867436
H        -0.49507825900827   -1.04711311795310   -2.18888712416391
