10
 energy: -18.350437232227 gnorm: 0.000237812690 xtb: 6.4.1 (1a32961)
C         0.22962724066506    1.00238959576830   -0.00742930128695
S         1.84711934091762    0.45200000361169   -0.00081975732784
C         1.32979126621155   -1.19284432813027    0.00172440488486
C        -0.01864790992858   -1.30919417549676   -0.00199172269319
C        -0.66400447160668   -0.03772828567424   -0.00749015590208
C        -2.05862029853835    0.13187451254563   -0.01273497102446
N        -3.19959168706189    0.26096240486884   -0.01855456332627
H         0.01144527966404    2.05200676168406   -0.01085460620308
H         2.06228441860611   -1.97474691325523    0.00633502866414
H        -0.55191317892889   -2.24217957592203   -0.00108435578513
