      -----------------------------------------------------------      
     |                   =====================                   |     
     |                           x T B                           |     
     |                   =====================                   |     
     |                         S. Grimme                         |     
     |          Mulliken Center for Theoretical Chemistry        |     
     |                    University of Bonn                     |     
      -----------------------------------------------------------      

   * xtb version 6.4.1 (1a32961) compiled by 'knkr256@seskscpg007.prim.scp' on 2021-10-19

   xtb is free software: you can redistribute it and/or modify it under
   the terms of the GNU Lesser General Public License as published by
   the Free Software Foundation, either version 3 of the License, or
   (at your option) any later version.
   
   xtb is distributed in the hope that it will be useful,
   but WITHOUT ANY WARRANTY; without even the implied warranty of
   MERCHANTABILITY or FITNESS FOR A PARTICULAR PURPOSE.  See the
   GNU Lesser General Public License for more details.
   
   Cite this work as:
   * C. Bannwarth, E. Caldeweyher, S. Ehlert, A. Hansen, P. Pracht,
     J. Seibert, S. Spicher, S. Grimme, WIREs Comput. Mol. Sci., 2020, 11,
     e01493. DOI: 10.1002/wcms.1493
   
   for GFN2-xTB:
   * C. Bannwarth, S. Ehlert and S. Grimme., J. Chem. Theory Comput., 2019,
     15, 1652-1671. DOI: 10.1021/acs.jctc.8b01176
   for GFN1-xTB:
   * S. Grimme, C. Bannwarth, P. Shushkov, J. Chem. Theory Comput., 2017,
     13, 1989-2009. DOI: 10.1021/acs.jctc.7b00118
   for GFN0-xTB:
   * P. Pracht, E. Caldeweyher, S. Ehlert, S. Grimme, ChemRxiv, 2019, preprint.
     DOI: 10.26434/chemrxiv.8326202.v1
   for GFN-FF:
   * S. Spicher and S. Grimme, Angew. Chem. Int. Ed., 2020, 59, 15665-15673.
     DOI: 10.1002/anie.202004239
   
   for ALPB and GBSA implicit solvation:
   * S. Ehlert, M. Stahn, S. Spicher, S. Grimme, J. Chem. Theory Comput.,
     2021, 17, 4250-4261. DOI: 10.1021/acs.jctc.1c00471
   
   for DFT-D4:
   * E. Caldeweyher, C. Bannwarth and S. Grimme, J. Chem. Phys., 2017,
     147, 034112. DOI: 10.1063/1.4993215
   * E. Caldeweyher, S. Ehlert, A. Hansen, H. Neugebauer, S. Spicher,
     C. Bannwarth and S. Grimme, J. Chem. Phys., 2019, 150, 154122.
     DOI: 10.1063/1.5090222
   * E. Caldeweyher, J.-M. Mewes, S. Ehlert and S. Grimme, Phys. Chem. Chem. Phys.
     2020, 22, 8499-8512. DOI: 10.1039/D0CP00502A
   
   for sTDA-xTB:
   * S. Grimme and C. Bannwarth, J. Chem. Phys., 2016, 145, 054103.
     DOI: 10.1063/1.4959605
   
   in the mass-spec context:
   * V. Asgeirsson, C. Bauer and S. Grimme, Chem. Sci., 2017, 8, 4879.
     DOI: 10.1039/c7sc00601b
   * J. Koopman and S. Grimme, ACS Omega 2019, 4, 12, 15120-15133.
     DOI: 10.1021/acsomega.9b02011
   
   for metadynamics refer to:
   * S. Grimme, J. Chem. Theory Comput., 2019, 155, 2847-2862
     DOI: 10.1021/acs.jctc.9b00143
   
   for SPH calculations refer to:
   * S. Spicher and S. Grimme, J. Chem. Theory Comput., 2021, 17, 1701-1714
     DOI: 10.1021/acs.jctc.0c01306
   
   with help from (in alphabetical order)
   P. Atkinson, C. Bannwarth, F. Bohle, G. Brandenburg, E. Caldeweyher
   M. Checinski, S. Dohm, S. Ehlert, S. Ehrlich, I. Gerasimov, J. Koopman
   C. Lavigne, S. Lehtola, F. März, M. Müller, F. Musil, H. Neugebauer
   J. Pisarek, C. Plett, P. Pracht, J. Seibert, P. Shushkov, S. Spicher
   M. Stahn, M. Steiner, T. Strunk, J. Stückrath, T. Rose, and J. Unsleber
   
 * started run on 2022/01/14 at 13:55:22.050     

           -------------------------------------------------
          |                Calculation Setup                |
           -------------------------------------------------

          program call               : xtb xtbopt.xyz --sp --alpb thf -P 6
          hostname                   : seskscpg007.prim.scp
          coordinate file            : xtbopt.xyz
          omp threads                :                     6
          number of atoms            :                   109
          number of electrons        :                   286
          charge                     :                     0
          spin                       :                   0.0
          first test random number   :      0.12751077108011

   ID    Z sym.   atoms
    1    7 N      1, 11, 88
    2    6 C      2-6, 10, 12-15, 23, 24, 28, 32, 34, 38, 44, 45, 49, 53, 55,
                  59, 65, 66, 70, 74, 76, 80, 86, 87, 89, 91, 92, 97-100
    3    1 H      7-9, 16-18, 20, 25-27, 29-31, 35-37, 39-41, 46-48, 50-52,
                  56-58, 60-62, 67-69, 71-73, 77-79, 81-85, 90, 93, 94,
                  101-109
    4   77 Ir     19
    5    5 B      21, 42, 63
    6    8 O      22, 33, 43, 54, 64, 75, 95, 96

molecular fragmentation (1/2 indicates fragments):
111111111111111111111111111111111111111111111111111111111111111111111111
1111111111111222222222222222222222222
# atoms in fragment 1/2:    85    24
 fragment masses (1/2) :      730.32      166.20
CMA distance (Bohr)    :   8.782
constraining FC (au)   :  0.0500

           -------------------------------------------------
          |                 G F N 2 - x T B                 |
           -------------------------------------------------

        Reference                      10.1021/acs.jctc.8b01176
      * Hamiltonian:
        H0-scaling (s, p, d)           1.850000    2.230000    2.230000
        zeta-weighting                 0.500000
      * Dispersion:
        s8                             2.700000
        a1                             0.520000
        a2                             5.000000
        s9                             5.000000
      * Repulsion:
        kExp                           1.500000    1.000000
        rExp                           1.000000
      * Coulomb:
        alpha                          2.000000
        third order                    shell-resolved
        anisotropic                    true
        a3                             3.000000
        a5                             4.000000
        cn-shift                       1.200000
        cn-exp                         4.000000
        max-rad                        5.000000

      * Solvation model:               ALPB
        Solvent                        thf
        Parameter file                 internal GFN2-xTB/ALPB
        Dielectric constant                7.6000E+00
        Reference state                gsolv [1 M gas/solution]
        Free energy shift                  5.3248E-03 Eh       3.3414E+00 kcal/mol
        Temperature                        2.9815E+02 K
        Density                            8.8300E-01 kg/L
        Solvent mass                       7.2106E+01 g/mol
        Interaction kernel             P16
        Born radius scaling (c1)           1.7311E+00
        Born radii integrator          GBOBC
        Born offset                        0.0000E+00 a0       0.0000E+00 AA
        H-bond correction              true
        Ion screening                  false
        Surface tension                    1.0000E-05 Eh       1.5569E+01 dyn/cm
        Grid points                               230 per atom
q/qsh data taken from xtbrestart
CAMM data taken from xtbrestart

          ...................................................
          :                      SETUP                      :
          :.................................................:
          :  # basis functions                 271          :
          :  # atomic orbitals                 270          :
          :  # shells                          162          :
          :  # electrons                       286          :
          :  max. iterations                   250          :
          :  Hamiltonian                  GFN2-xTB          :
          :  restarted?                       true          :
          :  GBSA solvation                   true          :
          :  PC potential                    false          :
          :  electronic temp.          300.0000000     K    :
          :  accuracy                    1.0000000          :
          :  -> integral cutoff          0.2500000E+02      :
          :  -> integral neglect         0.1000000E-07      :
          :  -> SCF convergence          0.1000000E-05 Eh   :
          :  -> wf. convergence          0.1000000E-03 e    :
          :  Broyden damping             0.4000000          :
          ...................................................

 iter      E             dE          RMSdq      gap      omega  full diag
   1   -159.4964998 -0.159496E+03  0.417E-05    0.82       0.0  T
   2   -159.4964998  0.690932E-10  0.382E-05    0.82     250.7  T
   3   -159.4964998 -0.119371E-11  0.339E-05    0.82     282.8  T

   *** convergence criteria satisfied after 3 iterations ***

         #    Occupation            Energy/Eh            Energy/eV
      -------------------------------------------------------------
         1        2.0000           -0.7366236             -20.0445
       ...           ...                  ...                  ...
       137        2.0000           -0.3695198             -10.0551
       138        2.0000           -0.3492864              -9.5046
       139        2.0000           -0.3290840              -8.9548
       140        2.0000           -0.3235110              -8.8032
       141        2.0000           -0.3177172              -8.6455
       142        2.0000           -0.3092308              -8.4146
       143        2.0000           -0.3075227              -8.3681 (HOMO)
       144        0.0000           -0.2774067              -7.5486 (LUMO)
       145                         -0.2481409              -6.7523
       146                         -0.2465714              -6.7096
       147                         -0.2361815              -6.4268
       148                         -0.2055432              -5.5931
       ...                                ...                  ...
       270                          3.5390700              96.3030
      -------------------------------------------------------------
                  HL-Gap            0.0301160 Eh            0.8195 eV
             Fermi-level           -0.2923919 Eh           -7.9564 eV

 SCC (total)                   0 d,  0 h,  0 min,  0.092 sec
 SCC setup                      ...        0 min,  0.002 sec (  2.645%)
 Dispersion                     ...        0 min,  0.003 sec (  3.189%)
 classical contributions        ...        0 min,  0.000 sec (  0.184%)
 integral evaluation            ...        0 min,  0.012 sec ( 12.858%)
 iterations                     ...        0 min,  0.036 sec ( 39.134%)
 molecular gradient             ...        0 min,  0.038 sec ( 41.238%)
 printout                       ...        0 min,  0.001 sec (  0.683%)

         :::::::::::::::::::::::::::::::::::::::::::::::::::::
         ::                     SUMMARY                     ::
         :::::::::::::::::::::::::::::::::::::::::::::::::::::
         :: total energy            -157.507435484756 Eh    ::
         :: total w/o Gsasa/hb      -157.466701879966 Eh    ::
         :: gradient norm              0.040003315334 Eh/a0 ::
         :: HOMO-LUMO gap              0.819497414496 eV    ::
         ::.................................................::
         :: SCC energy              -159.496499802603 Eh    ::
         :: -> isotropic ES            0.291161325744 Eh    ::
         :: -> anisotropic ES          0.012167251568 Eh    ::
         :: -> anisotropic XC          0.048539846759 Eh    ::
         :: -> dispersion             -0.150387599637 Eh    ::
         :: -> Gsolv                  -0.053244774502 Eh    ::
         ::    -> Gelec               -0.012511169712 Eh    ::
         ::    -> Gsasa               -0.043587452715 Eh    ::
         ::    -> Ghb                 -0.002470967519 Eh    ::
         ::    -> Gshift               0.005324815444 Eh    ::
         :: repulsion energy           1.979102091711 Eh    ::
         :: add. restraining           0.000000000000 Eh    ::
         :: total charge               0.000000000085 e     ::
         :::::::::::::::::::::::::::::::::::::::::::::::::::::

           -------------------------------------------------
          |                Property Printout                |
           -------------------------------------------------

    * Orbital Energies and Occupations

         #    Occupation            Energy/Eh            Energy/eV
      -------------------------------------------------------------
         1        2.0000           -0.7366236             -20.0445
       ...           ...                  ...                  ...
       131        2.0000           -0.3966134             -10.7924
       132        2.0000           -0.3925319             -10.6813
       133        2.0000           -0.3872193             -10.5368
       134        2.0000           -0.3857999             -10.4981
       135        2.0000           -0.3826632             -10.4128
       136        2.0000           -0.3805585             -10.3555
       137        2.0000           -0.3695198             -10.0551
       138        2.0000           -0.3492864              -9.5046
       139        2.0000           -0.3290840              -8.9548
       140        2.0000           -0.3235110              -8.8032
       141        2.0000           -0.3177172              -8.6455
       142        2.0000           -0.3092308              -8.4146
       143        2.0000           -0.3075227              -8.3681 (HOMO)
       144        0.0000           -0.2774067              -7.5486 (LUMO)
       145                         -0.2481409              -6.7523
       146                         -0.2465714              -6.7096
       147                         -0.2361815              -6.4268
       148                         -0.2055432              -5.5931
       149                         -0.1927580              -5.2452
       150                         -0.1668616              -4.5405
       151                         -0.1476173              -4.0169
       152                         -0.1316971              -3.5837
       153                         -0.1269523              -3.4545
       154                         -0.1258912              -3.4257
       ...                                ...                  ...
       270                          3.5390700              96.3030
      -------------------------------------------------------------
                  HL-Gap            0.0301160 Eh            0.8195 eV
             Fermi-level           -0.2923919 Eh           -7.9564 eV

     #   Z          covCN         q      C6AA      α(0)
     1   7 N        2.503    -0.122    23.702     7.230
     2   6 C        2.953     0.077    26.285     8.409
     3   6 C        2.919    -0.044    29.098     8.846
     4   6 C        2.923    -0.021    28.538     8.761
     5   6 C        2.915    -0.042    29.052     8.839
     6   6 C        2.893     0.043    27.025     8.523
     7   1 H        0.926     0.078     1.998     2.210
     8   1 H        0.926     0.057     2.231     2.336
     9   1 H        0.926     0.047     2.360     2.402
    10   6 C        2.953     0.073    26.364     8.422
    11   7 N        2.510    -0.129    23.851     7.253
    12   6 C        2.893     0.046    26.966     8.514
    13   6 C        2.916    -0.043    29.073     8.842
    14   6 C        2.923    -0.023    28.578     8.767
    15   6 C        2.919    -0.047    29.165     8.856
    16   1 H        0.926     0.048     2.350     2.397
    17   1 H        0.926     0.053     2.284     2.363
    18   1 H        0.926     0.078     2.001     2.212
    19  77 Ir       5.846    -0.164   389.150    36.480
    20   1 H        0.977     0.127     1.556     1.949
    21   5 B        2.629     0.399    16.081     6.776
    22   8 O        1.638    -0.411    21.073     6.196
    23   6 C        3.834     0.130    18.445     6.110
    24   6 C        3.755    -0.123    22.911     6.825
    25   1 H        0.925     0.054     2.267     2.355
    26   1 H        0.925     0.045     2.384     2.414
    27   1 H        0.925     0.052     2.291     2.367
    28   6 C        3.755    -0.109    22.642     6.785
    29   1 H        0.925     0.047     2.357     2.401
    30   1 H        0.925     0.042     2.428     2.437
    31   1 H        0.925     0.026     2.638     2.540
    32   6 C        3.837     0.130    18.443     6.110
    33   8 O        1.637    -0.402    20.891     6.170
    34   6 C        3.755    -0.119    22.840     6.814
    35   1 H        0.925     0.045     2.377     2.411
    36   1 H        0.925     0.048     2.346     2.395
    37   1 H        0.925     0.049     2.338     2.391
    38   6 C        3.755    -0.120    22.855     6.817
    39   1 H        0.925     0.046     2.365     2.405
    40   1 H        0.925     0.053     2.283     2.363
    41   1 H        0.925     0.045     2.378     2.412
    42   5 B        2.629     0.398    16.079     6.775
    43   8 O        1.637    -0.389    20.645     6.133
    44   6 C        3.842     0.129    18.458     6.112
    45   6 C        3.755    -0.125    22.964     6.833
    46   1 H        0.925     0.056     2.243     2.342
    47   1 H        0.925     0.059     2.214     2.327
    48   1 H        0.925     0.046     2.364     2.404
    49   6 C        3.755    -0.124    22.942     6.830
    50   1 H        0.925     0.048     2.343     2.393
    51   1 H        0.925     0.054     2.268     2.355
    52   1 H        0.925     0.049     2.329     2.386
    53   6 C        3.833     0.128    18.487     6.117
    54   8 O        1.638    -0.381    20.491     6.110
    55   6 C        3.755    -0.124    22.927     6.827
    56   1 H        0.925     0.055     2.262     2.352
    57   1 H        0.925     0.053     2.277     2.360
    58   1 H        0.925     0.047     2.359     2.402
    59   6 C        3.754    -0.120    22.861     6.818
    60   1 H        0.925     0.044     2.401     2.423
    61   1 H        0.925     0.050     2.322     2.383
    62   1 H        0.925     0.048     2.351     2.398
    63   5 B        2.624     0.400    16.082     6.781
    64   8 O        1.638    -0.376    20.395     6.096
    65   6 C        3.827     0.124    18.543     6.127
    66   6 C        3.755    -0.132    23.082     6.850
    67   1 H        0.925     0.054     2.273     2.358
    68   1 H        0.925     0.057     2.233     2.337
    69   1 H        0.925     0.053     2.279     2.361
    70   6 C        3.755    -0.129    23.033     6.843
    71   1 H        0.925     0.060     2.195     2.317
    72   1 H        0.925     0.050     2.315     2.379
    73   1 H        0.925     0.052     2.299     2.371
    74   6 C        3.836     0.127    18.492     6.118
    75   8 O        1.637    -0.373    20.346     6.089
    76   6 C        3.755    -0.130    23.043     6.844
    77   1 H        0.925     0.052     2.296     2.370
    78   1 H        0.925     0.056     2.244     2.343
    79   1 H        0.925     0.060     2.196     2.317
    80   6 C        3.755    -0.120    22.855     6.817
    81   1 H        0.925     0.043     2.406     2.426
    82   1 H        0.925     0.043     2.404     2.425
    83   1 H        0.925     0.054     2.269     2.356
    84   1 H        0.926     0.053     2.285     2.364
    85   1 H        0.926     0.051     2.306     2.375
    86   6 C        2.891    -0.017    28.443     8.744
    87   6 C        3.062    -0.061    29.446     8.898
    88   7 N        2.863    -0.044    22.088     6.980
    89   6 C        3.022    -0.063    29.543     8.916
    90   1 H        0.926     0.021     2.722     2.580
    91   6 C        3.015    -0.018    28.429     8.746
    92   6 C        2.638     0.412    20.059     7.326
    93   1 H        0.926     0.035     2.512     2.479
    94   1 H        0.926     0.046     2.370     2.407
    95   8 O        0.858    -0.477    23.283     6.469
    96   8 O        1.661    -0.371    20.290     6.081
    97   6 C        3.855    -0.023    20.946     6.509
    98   6 C        3.806    -0.077    21.974     6.673
    99   6 C        3.751    -0.113    22.724     6.798
   100   6 C        3.806    -0.072    21.863     6.656
   101   1 H        0.804     0.371     0.542     1.156
   102   1 H        0.926     0.029     2.604     2.524
   103   1 H        0.926     0.039     2.464     2.455
   104   1 H        0.924     0.043     2.410     2.428
   105   1 H        0.925     0.044     2.395     2.420
   106   1 H        0.925     0.042     2.428     2.437
   107   1 H        0.926     0.030     2.590     2.517
   108   1 H        0.925     0.034     2.527     2.486
   109   1 H        0.926     0.038     2.482     2.464

 Mol. C6AA /au·bohr⁶  :     121664.039865
 Mol. C8AA /au·bohr⁸  :    3173702.991328
 Mol. α(0) /au        :        536.997260


Wiberg/Mayer (AO) data.
largest (>0.10) Wiberg bond orders for each atom

 ---------------------------------------------------------------------------
     #   Z sym  total        # sym  WBO       # sym  WBO       # sym  WBO
 ---------------------------------------------------------------------------
     1   7 N    3.389 --     6 C    1.400     2 C    1.327    19 Ir   0.406
     2   6 C    3.980 --     3 C    1.355     1 N    1.327    10 C    1.081
     3   6 C    3.988 --     4 C    1.475     2 C    1.355     9 H    0.962
                             6 C    0.106
     4   6 C    3.986 --     3 C    1.475     5 C    1.396    84 H    0.969
     5   6 C    3.980 --     6 C    1.448     4 C    1.396     8 H    0.968
     6   6 C    3.972 --     5 C    1.448     1 N    1.400     7 H    0.949
                             3 C    0.106
     7   1 H    0.993 --     6 C    0.949
     8   1 H    0.996 --     5 C    0.968
     9   1 H    0.997 --     3 C    0.962
    10   6 C    3.979 --    15 C    1.359    11 N    1.321     2 C    1.081
    11   7 N    3.384 --    12 C    1.401    10 C    1.321    19 Ir   0.395
    12   6 C    3.972 --    13 C    1.446    11 N    1.401    18 H    0.947
                            15 C    0.105
    13   6 C    3.981 --    12 C    1.446    14 C    1.398    17 H    0.969
    14   6 C    3.985 --    15 C    1.471    13 C    1.398    85 H    0.969
    15   6 C    3.989 --    14 C    1.471    10 C    1.359    16 H    0.961
                            12 C    0.105
    16   1 H    0.997 --    15 C    0.961
    17   1 H    0.996 --    13 C    0.969
    18   1 H    0.994 --    12 C    0.947
    19  77 Ir   5.141 --    42 B    0.886    63 B    0.884    21 B    0.766
                            86 C    0.568    20 H    0.530     1 N    0.406
                            11 N    0.395
    20   1 H    0.983 --    19 Ir   0.530    86 C    0.358
    21   5 B    3.273 --    33 O    1.114    22 O    1.081    19 Ir   0.766
    22   8 O    2.186 --    21 B    1.081    23 C    0.944
    23   6 C    3.944 --    24 C    0.996    28 C    0.990    22 O    0.944
                            32 C    0.941
    24   6 C    3.993 --    23 C    0.996    26 H    0.984    27 H    0.983
                            25 H    0.982
    25   1 H    0.997 --    24 C    0.982
    26   1 H    0.997 --    24 C    0.984
    27   1 H    0.997 --    24 C    0.983
    28   6 C    3.997 --    23 C    0.990    31 H    0.984    29 H    0.984
                            30 H    0.984
    29   1 H    0.997 --    28 C    0.984
    30   1 H    0.998 --    28 C    0.984
    31   1 H    0.999 --    28 C    0.984
    32   6 C    3.941 --    38 C    0.997    34 C    0.991    33 O    0.941
                            23 C    0.941
    33   8 O    2.204 --    21 B    1.114    32 C    0.941
    34   6 C    3.995 --    32 C    0.991    36 H    0.983    37 H    0.982
                            35 H    0.981
    35   1 H    0.998 --    34 C    0.981
    36   1 H    0.997 --    34 C    0.983
    37   1 H    0.997 --    34 C    0.982
    38   6 C    3.994 --    32 C    0.997    41 H    0.984    39 H    0.983
                            40 H    0.983
    39   1 H    0.998 --    38 C    0.983
    40   1 H    0.997 --    38 C    0.983
    41   1 H    0.997 --    38 C    0.984
    42   5 B    3.331 --    43 O    1.114    54 O    1.110    19 Ir   0.886
    43   8 O    2.214 --    42 B    1.114    44 C    0.936
    44   6 C    3.936 --    45 C    0.997    49 C    0.991    53 C    0.940
                            43 O    0.936
    45   6 C    3.992 --    44 C    0.997    48 H    0.983    47 H    0.980
                            46 H    0.980
    46   1 H    0.997 --    45 C    0.980
    47   1 H    0.996 --    45 C    0.980
    48   1 H    0.997 --    45 C    0.983
    49   6 C    3.994 --    44 C    0.991    50 H    0.984    51 H    0.983
                            52 H    0.981
    50   1 H    0.997 --    49 C    0.984
    51   1 H    0.997 --    49 C    0.983
    52   1 H    0.998 --    49 C    0.981
    53   6 C    3.939 --    55 C    0.996    59 C    0.991    44 C    0.940
                            54 O    0.935
    54   8 O    2.232 --    42 B    1.110    53 C    0.935
    55   6 C    3.993 --    53 C    0.996    58 H    0.983    57 H    0.983
                            56 H    0.982
    56   1 H    0.997 --    55 C    0.982
    57   1 H    0.997 --    55 C    0.983
    58   1 H    0.996 --    55 C    0.983
    59   6 C    3.995 --    53 C    0.991    62 H    0.983    61 H    0.983
                            60 H    0.982
    60   1 H    0.998 --    59 C    0.982
    61   1 H    0.996 --    59 C    0.983
    62   1 H    0.997 --    59 C    0.983
    63   5 B    3.365 --    75 O    1.127    64 O    1.096    19 Ir   0.884
    64   8 O    2.233 --    63 B    1.096    65 C    0.938
    65   6 C    3.939 --    70 C    0.996    66 C    0.991    74 C    0.939
                            64 O    0.938
    66   6 C    3.993 --    65 C    0.991    69 H    0.983    68 H    0.982
                            67 H    0.979
    67   1 H    0.997 --    66 C    0.979
    68   1 H    0.996 --    66 C    0.982
    69   1 H    0.996 --    66 C    0.983
    70   6 C    3.993 --    65 C    0.996    72 H    0.983    73 H    0.982
                            71 H    0.982
    71   1 H    0.996 --    70 C    0.982
    72   1 H    0.996 --    70 C    0.983
    73   1 H    0.997 --    70 C    0.982
    74   6 C    3.935 --    76 C    0.997    80 C    0.990    65 C    0.939
                            75 O    0.937
    75   8 O    2.236 --    63 B    1.127    74 C    0.937
    76   6 C    3.991 --    74 C    0.997    77 H    0.983    78 H    0.982
                            79 H    0.978
    77   1 H    0.996 --    76 C    0.983
    78   1 H    0.997 --    76 C    0.982
    79   1 H    0.996 --    76 C    0.978
    80   6 C    3.995 --    74 C    0.990    81 H    0.983    83 H    0.983
                            82 H    0.980
    81   1 H    0.998 --    80 C    0.983
    82   1 H    0.998 --    80 C    0.980
    83   1 H    0.996 --    80 C    0.983
    84   1 H    0.996 --     4 C    0.969
    85   1 H    0.996 --    14 C    0.969
    86   6 C    3.884 --    87 C    1.561    88 N    1.112    19 Ir   0.568
                            20 H    0.358    91 C    0.122
    87   6 C    3.977 --    86 C    1.561    89 C    1.254    90 H    0.972
    88   7 N    3.621 --    91 C    1.122    86 C    1.112    92 C    1.093
    89   6 C    3.979 --    91 C    1.624    87 C    1.254    93 H    0.973
    90   1 H    0.999 --    87 C    0.972
    91   6 C    3.924 --    89 C    1.624    88 N    1.122    94 H    0.968
                            86 C    0.122
    92   6 C    3.940 --    95 O    1.636    96 O    1.148    88 N    1.093
    93   1 H    0.998 --    89 C    0.973
    94   1 H    0.998 --    91 C    0.968
    95   8 O    1.961 --    92 C    1.636    96 O    0.155
    96   8 O    2.218 --    92 C    1.148   101 H    0.822    95 O    0.155
    97   6 C    3.949 --    99 C    1.019   100 C    0.975    98 C    0.971
                           108 H    0.969
    98   6 C    3.943 --   102 H    0.982   100 C    0.980   103 H    0.979
                            97 C    0.971
    99   6 C    3.996 --    97 C    1.019   105 H    0.983   106 H    0.981
                           104 H    0.977
   100   6 C    3.943 --   107 H    0.982   109 H    0.980    98 C    0.980
                            97 C    0.975
   101   1 H    0.862 --    96 O    0.822
   102   1 H    0.999 --    98 C    0.982
   103   1 H    0.998 --    98 C    0.979
   104   1 H    0.998 --    99 C    0.977
   105   1 H    0.998 --    99 C    0.983
   106   1 H    0.998 --    99 C    0.981
   107   1 H    0.999 --   100 C    0.982
   108   1 H    0.999 --    97 C    0.969
   109   1 H    0.998 --   100 C    0.980
 ---------------------------------------------------------------------------

Topologies differ in total number of bonds
Writing topology from bond orders to xtbtopo.mol

molecular dipole:
                 x           y           z       tot (Debye)
 q only:       -0.072      -0.310      -2.449
   full:       -1.263      -0.153      -2.842       7.915
molecular quadrupole (traceless):
                xx          xy          yy          xz          yz          zz
 q only:       20.939      -4.411       7.989     -11.321      12.635     -28.928
  q+dip:       24.955      -2.605       5.327     -10.677      16.712     -30.282
   full:       21.930      -2.089       6.617     -12.165      12.653     -28.547


           -------------------------------------------------
          | TOTAL ENERGY             -157.507435484756 Eh   |
          | GRADIENT NORM               0.040003315334 Eh/α |
          | HOMO-LUMO GAP               0.819497414496 eV   |
           -------------------------------------------------

------------------------------------------------------------------------
 * finished run on 2022/01/14 at 13:55:22.174     
------------------------------------------------------------------------
 total:
 * wall-time:     0 d,  0 h,  0 min,  0.124 sec
 *  cpu-time:     0 d,  0 h,  0 min,  0.722 sec
 * ratio c/w:     5.803 speedup
 SCF:
 * wall-time:     0 d,  0 h,  0 min,  0.094 sec
 *  cpu-time:     0 d,  0 h,  0 min,  0.560 sec
 * ratio c/w:     5.950 speedup

