118
 energy: -173.577636970219 gnorm: 0.000531313240 xtb: 6.4.1 (1a32961)
N        -0.96510000000000   -2.11530000000002   -0.24089999999999
C        -2.24700000000000   -1.69839999999999   -0.36219999999999
C        -3.14039999999999   -2.36820000000002   -1.21200000000001
C        -2.70220000000001   -3.47560000000001   -1.93049999999998
C        -1.37780000000002   -3.89879999999999   -1.78760000000000
C        -0.54290000000001   -3.18669999999999   -0.93509999999999
H         0.49810000000000   -3.45630000000000   -0.78940000000000
H        -0.99570000000001   -4.76030000000000   -2.32769999999999
H        -4.16500000000002   -2.02890000000002   -1.31829999999999
C        -2.62130000000000   -0.50950000000002    0.44099999999998
N        -1.62599999999999    0.07330000000000    1.16020000000000
C        -1.89680000000014    1.15239999999999    1.91690000000000
C        -3.17229999999996    1.70329999999999    1.99649999999999
C        -4.20510000000000    1.11740000000001    1.26270000000003
C        -3.92610000000000    0.00250000000000    0.47819999999998
H        -4.71959999999999   -0.46420000000001   -0.09519999999999
H        -3.34629999999999    2.57509999999999    2.62069999999998
H        -1.04450000000002    1.57420000000000    2.43689999999998
Ir        0.42150000000000   -0.81650000000000    0.91330000000000
H         0.87260000000000   -2.23030000000000    1.54050000000000
B         0.50670000000000    0.41560000000000   -0.81540000000001
O         0.19499999999999   -0.04700000000001   -2.09150000000001
C         0.00649999999999    1.10040000000004   -2.95430000000000
C         0.49020000000001    0.74739999999998   -4.35779999999999
H         1.51609999999997    0.37379999999998   -4.33700000000000
H         0.44729999999998    1.62239999999999   -5.01669999999997
H        -0.14740000000000   -0.03389999999998   -4.78429999999997
C        -1.50120000000006    1.39559999999992   -2.96670000000003
H        -1.75369999999999    2.21460000000003   -3.64850000000002
H        -2.03200000000000    0.49450000000001   -3.28930000000000
H        -1.85169999999999    1.65210000000000   -1.96220000000002
C         0.84230000000005    2.20669999999998   -2.22040000000005
O         0.75199999999999    1.78260000000001   -0.83690000000000
C         2.32930000000001    2.18619999999996   -2.59900000000001
H         2.74129999999999    1.18500000000000   -2.45750000000000
H         2.48870000000000    2.51299999999999   -3.63179999999999
H         2.87200000000001    2.86269999999999   -1.93200000000000
C         0.28439999999996    3.62289999999998   -2.33660000000003
H        -0.72650000000000    3.69039999999999   -1.92910000000002
H         0.92130000000000    4.31479999999999   -1.77610000000000
H         0.26430000000000    3.94809999999999   -3.38320000000004
B         1.56300000000001    0.60960000000000    1.84839999999999
O         2.92780000000000    0.55230000000000    2.15020000000000
C         3.36329999999999    1.88660000000001    2.50260000000000
C         4.53139999999999    1.78589999999999    3.47740000000000
H         4.27910000000000    1.16090000000000    4.33689999999999
H         5.39390000000001    1.33790000000000    2.97340000000000
H         4.82390000000000    2.77870000000000    3.83819999999999
C         3.79700000000000    2.56850000000000    1.19669999999999
H         4.20019999999999    3.57090000000000    1.37680000000000
H         4.56740000000000    1.95560000000000    0.72110000000000
H         2.95240000000000    2.63260000000000    0.50540000000000
C         2.05040000000001    2.50090000000002    3.09320000000000
O         1.03750000000001    1.81620000000001    2.31910000000001
C         1.89099999999997    4.00449999999999    2.88649999999999
H         1.87289999999999    4.25440000000000    1.82409999999999
H         0.94939999999999    4.34260000000001    3.33170000000000
H         2.71080000000000    4.55150000000000    3.36629999999998
C         1.82470000000008    2.13199999999999    4.56519999999998
H         1.92609999999999    1.05330000000003    4.71320000000000
H         2.52610000000000    2.65280000000000    5.22540000000001
H         0.80630000000002    2.41580000000001    4.84900000000000
B         2.27819999999998   -1.33089999999999    0.17410000000000
O         2.89459999999998   -2.57740000000000    0.38450000000001
C         4.26930000000000   -2.48199999999999   -0.07210000000002
C         5.10899999999999   -2.05379999999999    1.14010000000000
H         4.76350000000000   -1.08740000000001    1.51750000000000
H         4.98050000000000   -2.79470000000001    1.93590000000001
H         6.17419999999999   -1.99289999999999    0.89300000000000
C         4.71949999999999   -3.84659999999997   -0.58469999999995
H         4.75279999999999   -4.56130000000000    0.24420000000003
H         5.72330000000000   -3.78370000000000   -1.02010000000001
H         4.03499999999999   -4.23600000000000   -1.34170000000001
C         4.16439999999999   -1.36220000000001   -1.16300000000000
O         3.08519999999998   -0.55030000000002   -0.65400000000000
C         5.40719999999999   -0.48869999999998   -1.31549999999997
H         6.27320000000000   -1.09010000000000   -1.61530000000001
H         5.23300000000000    0.26930000000000   -2.08590000000000
H         5.64269999999999    0.02649999999999   -0.38240000000002
C         3.71799999999996   -1.89830000000000   -2.53109999999997
H         2.82529999999998   -2.52159999999999   -2.42740000000000
H         3.46089999999999   -1.05249999999999   -3.17550000000001
H         4.50569999999998   -2.48290000000001   -3.01790000000000
H        -3.38500000000001   -4.00130000000000   -2.59309999999999
H        -5.21400000000000    1.52080000000001    1.29960000000001
C         0.23590000000001   -1.68140000000001    2.96030000000000
C        -1.00069017189197   -2.15440161052099    3.40524394554748
C         1.30736600581993   -1.66421557396690    3.85861304136922
C        -1.20312447849608   -2.58857706031982    4.70648847738853
H        -1.83399734783444   -2.21504995258543    2.71535814110986
C         1.11514455965992   -2.09824777355502    5.16540687112799
H         2.28631949404897   -1.35166377802953    3.52465775165898
C        -0.12639220450954   -2.58899438416053    5.59720615048499
H        -2.16814005545377   -2.96627780486803    5.01900374056268
N         2.06103859079314   -2.27332363540327    6.19342132361785
C         0.05619028511072   -3.09201229615274    6.92721360125856
C         3.38403226530944   -1.85890071567921    6.10465062088648
C         1.41072062388676   -2.90873804871695    7.26186948499914
C        -0.81274484946476   -3.70026811014101    7.83586372592743
O         3.77295634727032   -1.04237366831137    5.30013425295114
O         4.17319041344177   -2.47200726669220    7.00012703463124
C         1.90571323709176   -3.31588902949283    8.49812173541334
C        -0.31255436568869   -4.11363262925824    9.05970234389615
H        -1.85356510104064   -3.84547562608447    7.57985682283073
C         5.58391765706879   -2.16705112162351    6.96409714033741
C         1.02398238276879   -3.92135848588655    9.38395597934095
H         2.94295071210029   -3.17548348103846    8.76004287550447
H        -0.96977560906287   -4.59357291237427    9.77323564185646
C         5.92233060166170   -1.19794320104478    8.09188385772278
C         6.34170195303902   -3.48322160809434    7.08874370130355
H         5.79587799325944   -1.69550688117347    5.99663560322407
H         1.39359313170499   -4.25316182524011   10.34596906024513
H         5.70085859341489   -1.65166532841454    9.05831362425614
H         5.33985502148628   -0.28241536624147    7.98889046563795
H         6.98129419975665   -0.94714129380667    8.04912036559889
H         6.12221819610215   -3.95329947030790    8.04743890008715
H         7.41186018438053   -3.29272222528874    7.01989448368043
H         6.05086042404075   -4.16523786913655    6.29000816307926
