      -----------------------------------------------------------      
     |                   =====================                   |     
     |                           x T B                           |     
     |                   =====================                   |     
     |                         S. Grimme                         |     
     |          Mulliken Center for Theoretical Chemistry        |     
     |                    University of Bonn                     |     
      -----------------------------------------------------------      

   * xtb version 6.4.1 (1a32961) compiled by 'knkr256@seskscpg007.prim.scp' on 2021-10-19

   xtb is free software: you can redistribute it and/or modify it under
   the terms of the GNU Lesser General Public License as published by
   the Free Software Foundation, either version 3 of the License, or
   (at your option) any later version.
   
   xtb is distributed in the hope that it will be useful,
   but WITHOUT ANY WARRANTY; without even the implied warranty of
   MERCHANTABILITY or FITNESS FOR A PARTICULAR PURPOSE.  See the
   GNU Lesser General Public License for more details.
   
   Cite this work as:
   * C. Bannwarth, E. Caldeweyher, S. Ehlert, A. Hansen, P. Pracht,
     J. Seibert, S. Spicher, S. Grimme, WIREs Comput. Mol. Sci., 2020, 11,
     e01493. DOI: 10.1002/wcms.1493
   
   for GFN2-xTB:
   * C. Bannwarth, S. Ehlert and S. Grimme., J. Chem. Theory Comput., 2019,
     15, 1652-1671. DOI: 10.1021/acs.jctc.8b01176
   for GFN1-xTB:
   * S. Grimme, C. Bannwarth, P. Shushkov, J. Chem. Theory Comput., 2017,
     13, 1989-2009. DOI: 10.1021/acs.jctc.7b00118
   for GFN0-xTB:
   * P. Pracht, E. Caldeweyher, S. Ehlert, S. Grimme, ChemRxiv, 2019, preprint.
     DOI: 10.26434/chemrxiv.8326202.v1
   for GFN-FF:
   * S. Spicher and S. Grimme, Angew. Chem. Int. Ed., 2020, 59, 15665-15673.
     DOI: 10.1002/anie.202004239
   
   for ALPB and GBSA implicit solvation:
   * S. Ehlert, M. Stahn, S. Spicher, S. Grimme, J. Chem. Theory Comput.,
     2021, 17, 4250-4261. DOI: 10.1021/acs.jctc.1c00471
   
   for DFT-D4:
   * E. Caldeweyher, C. Bannwarth and S. Grimme, J. Chem. Phys., 2017,
     147, 034112. DOI: 10.1063/1.4993215
   * E. Caldeweyher, S. Ehlert, A. Hansen, H. Neugebauer, S. Spicher,
     C. Bannwarth and S. Grimme, J. Chem. Phys., 2019, 150, 154122.
     DOI: 10.1063/1.5090222
   * E. Caldeweyher, J.-M. Mewes, S. Ehlert and S. Grimme, Phys. Chem. Chem. Phys.
     2020, 22, 8499-8512. DOI: 10.1039/D0CP00502A
   
   for sTDA-xTB:
   * S. Grimme and C. Bannwarth, J. Chem. Phys., 2016, 145, 054103.
     DOI: 10.1063/1.4959605
   
   in the mass-spec context:
   * V. Asgeirsson, C. Bauer and S. Grimme, Chem. Sci., 2017, 8, 4879.
     DOI: 10.1039/c7sc00601b
   * J. Koopman and S. Grimme, ACS Omega 2019, 4, 12, 15120-15133.
     DOI: 10.1021/acsomega.9b02011
   
   for metadynamics refer to:
   * S. Grimme, J. Chem. Theory Comput., 2019, 155, 2847-2862
     DOI: 10.1021/acs.jctc.9b00143
   
   for SPH calculations refer to:
   * S. Spicher and S. Grimme, J. Chem. Theory Comput., 2021, 17, 1701-1714
     DOI: 10.1021/acs.jctc.0c01306
   
   with help from (in alphabetical order)
   P. Atkinson, C. Bannwarth, F. Bohle, G. Brandenburg, E. Caldeweyher
   M. Checinski, S. Dohm, S. Ehlert, S. Ehrlich, I. Gerasimov, J. Koopman
   C. Lavigne, S. Lehtola, F. März, M. Müller, F. Musil, H. Neugebauer
   J. Pisarek, C. Plett, P. Pracht, J. Seibert, P. Shushkov, S. Spicher
   M. Stahn, M. Steiner, T. Strunk, J. Stückrath, T. Rose, and J. Unsleber
   
 * started run on 2022/01/14 at 14:47:18.011     

           -------------------------------------------------
          |                Calculation Setup                |
           -------------------------------------------------

          program call               : xtb xtbopt.xyz --sp --alpb thf -P 6
          hostname                   : seskscpg007.prim.scp
          coordinate file            : xtbopt.xyz
          omp threads                :                     6
          number of atoms            :                   118
          number of electrons        :                   316
          charge                     :                     0
          spin                       :                   0.0
          first test random number   :      0.16989770738469

   ID    Z sym.   atoms
    1    7 N      1, 11, 95
    2    6 C      2-6, 10, 12-15, 23, 24, 28, 32, 34, 38, 44, 45, 49, 53, 55,
                  59, 65, 66, 70, 74, 76, 80, 86-89, 91, 93, 96-99, 102, 103,
                  105, 106, 109, 110
    3    1 H      7-9, 16-18, 20, 25-27, 29-31, 35-37, 39-41, 46-48, 50-52,
                  56-58, 60-62, 67-69, 71-73, 77-79, 81-85, 90, 92, 94, 104,
                  107, 108, 111-118
    4   77 Ir     19
    5    5 B      21, 42, 63
    6    8 O      22, 33, 43, 54, 64, 75, 100, 101

molecular fragmentation (1/2 indicates fragments):
111111111111111111111111111111111111111111111111111111111111111111111111
1111111111111222222222222222222222222222222222
# atoms in fragment 1/2:    85    33
 fragment masses (1/2) :      730.32      252.29
CMA distance (Bohr)    :  12.701
constraining FC (au)   :  0.0500

           -------------------------------------------------
          |                 G F N 2 - x T B                 |
           -------------------------------------------------

        Reference                      10.1021/acs.jctc.8b01176
      * Hamiltonian:
        H0-scaling (s, p, d)           1.850000    2.230000    2.230000
        zeta-weighting                 0.500000
      * Dispersion:
        s8                             2.700000
        a1                             0.520000
        a2                             5.000000
        s9                             5.000000
      * Repulsion:
        kExp                           1.500000    1.000000
        rExp                           1.000000
      * Coulomb:
        alpha                          2.000000
        third order                    shell-resolved
        anisotropic                    true
        a3                             3.000000
        a5                             4.000000
        cn-shift                       1.200000
        cn-exp                         4.000000
        max-rad                        5.000000

      * Solvation model:               ALPB
        Solvent                        thf
        Parameter file                 internal GFN2-xTB/ALPB
        Dielectric constant                7.6000E+00
        Reference state                gsolv [1 M gas/solution]
        Free energy shift                  5.3248E-03 Eh       3.3414E+00 kcal/mol
        Temperature                        2.9815E+02 K
        Density                            8.8300E-01 kg/L
        Solvent mass                       7.2106E+01 g/mol
        Interaction kernel             P16
        Born radius scaling (c1)           1.7311E+00
        Born radii integrator          GBOBC
        Born offset                        0.0000E+00 a0       0.0000E+00 AA
        H-bond correction              true
        Ion screening                  false
        Surface tension                    1.0000E-05 Eh       1.5569E+01 dyn/cm
        Grid points                               230 per atom
q/qsh data taken from xtbrestart
CAMM data taken from xtbrestart

          ...................................................
          :                      SETUP                      :
          :.................................................:
          :  # basis functions                 301          :
          :  # atomic orbitals                 300          :
          :  # shells                          178          :
          :  # electrons                       316          :
          :  max. iterations                   250          :
          :  Hamiltonian                  GFN2-xTB          :
          :  restarted?                       true          :
          :  GBSA solvation                   true          :
          :  PC potential                    false          :
          :  electronic temp.          300.0000000     K    :
          :  accuracy                    1.0000000          :
          :  -> integral cutoff          0.2500000E+02      :
          :  -> integral neglect         0.1000000E-07      :
          :  -> SCF convergence          0.1000000E-05 Eh   :
          :  -> wf. convergence          0.1000000E-03 e    :
          :  Broyden damping             0.4000000          :
          ...................................................

 iter      E             dE          RMSdq      gap      omega  full diag
   1   -175.8959687 -0.175896E+03  0.222E-05    0.88       0.0  T
   2   -175.8959687  0.653699E-11  0.217E-05    0.88     425.1  T
   3   -175.8959687 -0.767386E-11  0.151E-05    0.88     611.1  T

   *** convergence criteria satisfied after 3 iterations ***

         #    Occupation            Energy/Eh            Energy/eV
      -------------------------------------------------------------
         1        2.0000           -0.7441601             -20.2496
       ...           ...                  ...                  ...
       152        2.0000           -0.3737759             -10.1710
       153        2.0000           -0.3452307              -9.3942
       154        2.0000           -0.3305270              -8.9941
       155        2.0000           -0.3213279              -8.7438
       156        2.0000           -0.3165198              -8.6129
       157        2.0000           -0.3095012              -8.4220
       158        2.0000           -0.3075906              -8.3700 (HOMO)
       159                         -0.2752223              -7.4892 (LUMO)
       160                         -0.2483848              -6.7589
       161                         -0.2458745              -6.6906
       162                         -0.2440161              -6.6400
       163                         -0.2287698              -6.2251
       ...                                ...                  ...
       300                          3.7268745             101.4134
      -------------------------------------------------------------
                  HL-Gap            0.0323683 Eh            0.8808 eV
             Fermi-level           -0.2913467 Eh           -7.9279 eV

 SCC (total)                   0 d,  0 h,  0 min,  0.120 sec
 SCC setup                      ...        0 min,  0.003 sec (  2.505%)
 Dispersion                     ...        0 min,  0.003 sec (  2.896%)
 classical contributions        ...        0 min,  0.000 sec (  0.169%)
 integral evaluation            ...        0 min,  0.013 sec ( 11.059%)
 iterations                     ...        0 min,  0.046 sec ( 37.856%)
 molecular gradient             ...        0 min,  0.054 sec ( 44.776%)
 printout                       ...        0 min,  0.001 sec (  0.687%)

         :::::::::::::::::::::::::::::::::::::::::::::::::::::
         ::                     SUMMARY                     ::
         :::::::::::::::::::::::::::::::::::::::::::::::::::::
         :: total energy            -173.594684488886 Eh    ::
         :: total w/o Gsasa/hb      -173.544660430489 Eh    ::
         :: gradient norm              0.033948615131 Eh/a0 ::
         :: HOMO-LUMO gap              0.880786172557 eV    ::
         ::.................................................::
         :: SCC energy              -175.895968737464 Eh    ::
         :: -> isotropic ES            0.294438741938 Eh    ::
         :: -> anisotropic ES          0.011542369365 Eh    ::
         :: -> anisotropic XC          0.056059203128 Eh    ::
         :: -> dispersion             -0.164374912602 Eh    ::
         :: -> Gsolv                  -0.064465062604 Eh    ::
         ::    -> Gelec               -0.014441004208 Eh    ::
         ::    -> Gsasa               -0.052179571448 Eh    ::
         ::    -> Ghb                 -0.003169302393 Eh    ::
         ::    -> Gshift               0.005324815444 Eh    ::
         :: repulsion energy           2.292743088364 Eh    ::
         :: add. restraining           0.000000000000 Eh    ::
         :: total charge               0.000000000014 e     ::
         :::::::::::::::::::::::::::::::::::::::::::::::::::::

           -------------------------------------------------
          |                Property Printout                |
           -------------------------------------------------

    * Orbital Energies and Occupations

         #    Occupation            Energy/Eh            Energy/eV
      -------------------------------------------------------------
         1        2.0000           -0.7441601             -20.2496
       ...           ...                  ...                  ...
       146        2.0000           -0.3926159             -10.6836
       147        2.0000           -0.3870736             -10.5328
       148        2.0000           -0.3856225             -10.4933
       149        2.0000           -0.3805657             -10.3557
       150        2.0000           -0.3798346             -10.3358
       151        2.0000           -0.3742403             -10.1836
       152        2.0000           -0.3737759             -10.1710
       153        2.0000           -0.3452307              -9.3942
       154        2.0000           -0.3305270              -8.9941
       155        2.0000           -0.3213279              -8.7438
       156        2.0000           -0.3165198              -8.6129
       157        2.0000           -0.3095012              -8.4220
       158        2.0000           -0.3075906              -8.3700 (HOMO)
       159                         -0.2752223              -7.4892 (LUMO)
       160                         -0.2483848              -6.7589
       161                         -0.2458745              -6.6906
       162                         -0.2440161              -6.6400
       163                         -0.2287698              -6.2251
       164                         -0.2160073              -5.8779
       165                         -0.2042598              -5.5582
       166                         -0.1973605              -5.3705
       167                         -0.1771298              -4.8199
       168                         -0.1701311              -4.6295
       169                         -0.1465687              -3.9883
       ...                                ...                  ...
       300                          3.7268745             101.4134
      -------------------------------------------------------------
                  HL-Gap            0.0323683 Eh            0.8808 eV
             Fermi-level           -0.2913467 Eh           -7.9279 eV

     #   Z          covCN         q      C6AA      α(0)
     1   7 N        2.535    -0.121    23.664     7.224
     2   6 C        2.955     0.078    26.263     8.406
     3   6 C        2.918    -0.042    29.046     8.838
     4   6 C        2.924    -0.022    28.556     8.763
     5   6 C        2.915    -0.043    29.067     8.841
     6   6 C        2.893     0.049    26.896     8.503
     7   1 H        0.926     0.053     2.280     2.361
     8   1 H        0.926     0.057     2.237     2.339
     9   1 H        0.926     0.047     2.354     2.399
    10   6 C        2.953     0.074    26.354     8.420
    11   7 N        2.560    -0.123    23.698     7.230
    12   6 C        2.890     0.042    27.061     8.529
    13   6 C        2.915    -0.045    29.110     8.847
    14   6 C        2.922    -0.024    28.606     8.771
    15   6 C        2.918    -0.045    29.128     8.850
    16   1 H        0.926     0.048     2.345     2.395
    17   1 H        0.926     0.052     2.296     2.370
    18   1 H        0.926     0.076     2.017     2.221
    19  77 Ir       5.931    -0.154   387.930    36.423
    20   1 H        0.977     0.085     1.921     2.166
    21   5 B        2.628     0.402    16.051     6.771
    22   8 O        1.638    -0.408    21.009     6.187
    23   6 C        3.836     0.130    18.447     6.111
    24   6 C        3.755    -0.122    22.896     6.823
    25   1 H        0.925     0.054     2.266     2.354
    26   1 H        0.925     0.045     2.382     2.414
    27   1 H        0.925     0.051     2.303     2.373
    28   6 C        3.754    -0.109    22.643     6.785
    29   1 H        0.925     0.048     2.350     2.397
    30   1 H        0.925     0.042     2.426     2.436
    31   1 H        0.925     0.027     2.622     2.532
    32   6 C        3.840     0.131    18.434     6.108
    33   8 O        1.637    -0.406    20.966     6.181
    34   6 C        3.755    -0.120    22.846     6.815
    35   1 H        0.925     0.048     2.348     2.396
    36   1 H        0.925     0.047     2.354     2.399
    37   1 H        0.925     0.049     2.335     2.390
    38   6 C        3.754    -0.120    22.850     6.816
    39   1 H        0.925     0.047     2.358     2.401
    40   1 H        0.925     0.052     2.290     2.367
    41   1 H        0.925     0.046     2.376     2.411
    42   5 B        2.622     0.405    16.035     6.773
    43   8 O        1.637    -0.376    20.402     6.097
    44   6 C        3.833     0.129    18.470     6.115
    45   6 C        3.754    -0.124    22.945     6.830
    46   1 H        0.925     0.060     2.193     2.316
    47   1 H        0.925     0.054     2.265     2.354
    48   1 H        0.925     0.046     2.370     2.407
    49   6 C        3.754    -0.121    22.873     6.819
    50   1 H        0.925     0.049     2.335     2.390
    51   1 H        0.925     0.047     2.363     2.404
    52   1 H        0.925     0.051     2.308     2.376
    53   6 C        3.830     0.128    18.486     6.118
    54   8 O        1.637    -0.383    20.536     6.117
    55   6 C        3.755    -0.123    22.921     6.826
    56   1 H        0.925     0.053     2.287     2.365
    57   1 H        0.925     0.054     2.277     2.360
    58   1 H        0.925     0.048     2.350     2.397
    59   6 C        3.755    -0.119    22.829     6.813
    60   1 H        0.925     0.046     2.368     2.406
    61   1 H        0.925     0.047     2.360     2.402
    62   1 H        0.925     0.046     2.376     2.411
    63   5 B        2.628     0.400    16.063     6.773
    64   8 O        1.637    -0.377    20.427     6.101
    65   6 C        3.835     0.126    18.512     6.121
    66   6 C        3.755    -0.127    23.003     6.839
    67   1 H        0.925     0.058     2.222     2.331
    68   1 H        0.925     0.052     2.292     2.368
    69   1 H        0.925     0.049     2.337     2.391
    70   6 C        3.755    -0.128    23.023     6.842
    71   1 H        0.925     0.059     2.214     2.327
    72   1 H        0.925     0.050     2.315     2.379
    73   1 H        0.925     0.053     2.286     2.364
    74   6 C        3.829     0.126    18.512     6.122
    75   8 O        1.637    -0.382    20.519     6.115
    76   6 C        3.755    -0.124    22.940     6.829
    77   1 H        0.925     0.051     2.313     2.379
    78   1 H        0.925     0.053     2.282     2.362
    79   1 H        0.925     0.054     2.267     2.355
    80   6 C        3.755    -0.124    22.927     6.827
    81   1 H        0.925     0.040     2.449     2.447
    82   1 H        0.925     0.053     2.287     2.365
    83   1 H        0.925     0.054     2.267     2.355
    84   1 H        0.926     0.054     2.275     2.359
    85   1 H        0.926     0.051     2.302     2.373
    86   6 C        2.832    -0.021    28.524     8.752
    87   6 C        2.923    -0.037    28.908     8.817
    88   6 C        2.913    -0.050    29.250     8.869
    89   6 C        2.912    -0.042    29.032     8.835
    90   1 H        0.926     0.031     2.572     2.508
    91   6 C        3.038     0.053    26.776     8.487
    92   1 H        0.926     0.059     2.210     2.325
    93   6 C        3.056    -0.020    28.458     8.749
    94   1 H        0.926     0.038     2.470     2.458
    95   7 N        2.787    -0.084    22.872     7.103
    96   6 C        3.059    -0.009    28.188     8.707
    97   6 C        2.654     0.407    20.138     7.342
    98   6 C        3.035     0.053    26.787     8.489
    99   6 C        2.914    -0.038    28.948     8.823
   100   8 O        0.857    -0.489    23.550     6.506
   101   8 O        1.704    -0.295    18.906     5.871
   102   6 C        2.911    -0.049    29.228     8.865
   103   6 C        2.919    -0.041    29.021     8.834
   104   1 H        0.926     0.042     2.429     2.437
   105   6 C        3.743     0.123    18.649     6.161
   106   6 C        2.924    -0.039    28.960     8.825
   107   1 H        0.926     0.054     2.272     2.357
   108   1 H        0.926     0.042     2.428     2.437
   109   6 C        3.753    -0.130    23.058     6.847
   110   6 C        3.752    -0.126    22.980     6.836
   111   1 H        0.924     0.047     2.353     2.399
   112   1 H        0.926     0.044     2.392     2.419
   113   1 H        0.925     0.065     2.139     2.287
   114   1 H        0.925     0.059     2.209     2.324
   115   1 H        0.925     0.067     2.122     2.278
   116   1 H        0.925     0.061     2.193     2.316
   117   1 H        0.925     0.064     2.149     2.293
   118   1 H        0.925     0.051     2.312     2.378

 Mol. C6AA /au·bohr⁶  :     151945.505824
 Mol. C8AA /au·bohr⁸  :    3981847.602429
 Mol. α(0) /au        :        605.109796


Wiberg/Mayer (AO) data.
largest (>0.10) Wiberg bond orders for each atom

 ---------------------------------------------------------------------------
     #   Z sym  total        # sym  WBO       # sym  WBO       # sym  WBO
 ---------------------------------------------------------------------------
     1   7 N    3.399 --     6 C    1.389     2 C    1.311    19 Ir   0.440
     2   6 C    3.978 --     3 C    1.351     1 N    1.311    10 C    1.089
     3   6 C    3.988 --     4 C    1.481     2 C    1.351     9 H    0.962
                             6 C    0.106
     4   6 C    3.984 --     3 C    1.481     5 C    1.385    84 H    0.969
     5   6 C    3.980 --     6 C    1.459     4 C    1.385     8 H    0.968
     6   6 C    3.977 --     5 C    1.459     1 N    1.389     7 H    0.956
                             3 C    0.106
     7   1 H    0.997 --     6 C    0.956
     8   1 H    0.996 --     5 C    0.968
     9   1 H    0.997 --     3 C    0.962
    10   6 C    3.978 --    15 C    1.354    11 N    1.305     2 C    1.089
    11   7 N    3.413 --    12 C    1.387    10 C    1.305    19 Ir   0.439
    12   6 C    3.973 --    13 C    1.457    11 N    1.387    18 H    0.947
                            15 C    0.105
    13   6 C    3.981 --    12 C    1.457    14 C    1.386    17 H    0.969
    14   6 C    3.982 --    15 C    1.478    13 C    1.386    85 H    0.969
    15   6 C    3.988 --    14 C    1.478    10 C    1.354    16 H    0.962
                            12 C    0.105
    16   1 H    0.997 --    15 C    0.962
    17   1 H    0.997 --    13 C    0.969
    18   1 H    0.994 --    12 C    0.947
    19  77 Ir   5.169 --    63 B    0.863    42 B    0.848    21 B    0.729
                            86 C    0.597    20 H    0.529     1 N    0.440
                            11 N    0.439
    20   1 H    0.989 --    19 Ir   0.529    86 C    0.348
    21   5 B    3.270 --    33 O    1.109    22 O    1.091    19 Ir   0.729
    22   8 O    2.191 --    21 B    1.091    23 C    0.943
    23   6 C    3.943 --    24 C    0.997    28 C    0.990    22 O    0.943
                            32 C    0.941
    24   6 C    3.994 --    23 C    0.997    26 H    0.984    27 H    0.983
                            25 H    0.983
    25   1 H    0.997 --    24 C    0.983
    26   1 H    0.997 --    24 C    0.984
    27   1 H    0.997 --    24 C    0.983
    28   6 C    3.997 --    23 C    0.990    31 H    0.985    29 H    0.984
                            30 H    0.984
    29   1 H    0.997 --    28 C    0.984
    30   1 H    0.998 --    28 C    0.984
    31   1 H    0.999 --    28 C    0.985
    32   6 C    3.940 --    38 C    0.997    34 C    0.991    23 C    0.941
                            33 O    0.940
    33   8 O    2.199 --    21 B    1.109    32 C    0.940
    34   6 C    3.994 --    32 C    0.991    36 H    0.984    35 H    0.983
                            37 H    0.983
    35   1 H    0.998 --    34 C    0.983
    36   1 H    0.997 --    34 C    0.984
    37   1 H    0.997 --    34 C    0.983
    38   6 C    3.994 --    32 C    0.997    41 H    0.984    39 H    0.983
                            40 H    0.983
    39   1 H    0.998 --    38 C    0.983
    40   1 H    0.997 --    38 C    0.983
    41   1 H    0.997 --    38 C    0.984
    42   5 B    3.338 --    43 O    1.132    54 O    1.102    19 Ir   0.848
    43   8 O    2.238 --    42 B    1.132    44 C    0.937
    44   6 C    3.935 --    45 C    0.996    49 C    0.991    53 C    0.937
                            43 O    0.937
    45   6 C    3.992 --    44 C    0.996    48 H    0.983    47 H    0.982
                            46 H    0.980
    46   1 H    0.996 --    45 C    0.980
    47   1 H    0.997 --    45 C    0.982
    48   1 H    0.997 --    45 C    0.983
    49   6 C    3.994 --    44 C    0.991    50 H    0.983    51 H    0.983
                            52 H    0.981
    50   1 H    0.997 --    49 C    0.983
    51   1 H    0.997 --    49 C    0.983
    52   1 H    0.997 --    49 C    0.981
    53   6 C    3.938 --    55 C    0.995    59 C    0.992    44 C    0.937
                            54 O    0.936
    54   8 O    2.224 --    42 B    1.102    53 C    0.936
    55   6 C    3.993 --    53 C    0.995    58 H    0.983    57 H    0.983
                            56 H    0.983
    56   1 H    0.997 --    55 C    0.983
    57   1 H    0.997 --    55 C    0.983
    58   1 H    0.996 --    55 C    0.983
    59   6 C    3.995 --    53 C    0.992    62 H    0.983    61 H    0.983
                            60 H    0.979
    60   1 H    0.998 --    59 C    0.979
    61   1 H    0.997 --    59 C    0.983
    62   1 H    0.998 --    59 C    0.983
    63   5 B    3.359 --    64 O    1.116    75 O    1.112    19 Ir   0.863
    64   8 O    2.228 --    63 B    1.116    65 C    0.938
    65   6 C    3.937 --    70 C    0.996    66 C    0.991    64 O    0.938
                            74 C    0.938
    66   6 C    3.992 --    65 C    0.991    69 H    0.983    68 H    0.983
                            67 H    0.978
    67   1 H    0.997 --    66 C    0.978
    68   1 H    0.997 --    66 C    0.983
    69   1 H    0.997 --    66 C    0.983
    70   6 C    3.992 --    65 C    0.996    72 H    0.984    71 H    0.982
                            73 H    0.982
    71   1 H    0.996 --    70 C    0.982
    72   1 H    0.996 --    70 C    0.984
    73   1 H    0.997 --    70 C    0.982
    74   6 C    3.936 --    76 C    0.996    80 C    0.991    65 C    0.938
                            75 O    0.937
    75   8 O    2.228 --    63 B    1.112    74 C    0.937
    76   6 C    3.993 --    74 C    0.996    77 H    0.983    78 H    0.983
                            79 H    0.982
    77   1 H    0.996 --    76 C    0.983
    78   1 H    0.997 --    76 C    0.983
    79   1 H    0.997 --    76 C    0.982
    80   6 C    3.995 --    74 C    0.991    81 H    0.984    83 H    0.983
                            82 H    0.983
    81   1 H    0.998 --    80 C    0.984
    82   1 H    0.997 --    80 C    0.983
    83   1 H    0.996 --    80 C    0.983
    84   1 H    0.996 --     4 C    0.969
    85   1 H    0.996 --    14 C    0.969
    86   6 C    3.926 --    88 C    1.376    87 C    1.364    19 Ir   0.597
                            20 H    0.348
    87   6 C    3.985 --    89 C    1.461    86 C    1.364    90 H    0.964
    88   6 C    3.985 --    91 C    1.411    86 C    1.376    92 H    0.954
    89   6 C    3.977 --    87 C    1.461    93 C    1.367    94 H    0.967
    90   1 H    0.998 --    87 C    0.964
    91   6 C    3.945 --    88 C    1.411    93 C    1.277    95 N    1.047
    92   1 H    0.996 --    88 C    0.954
    93   6 C    3.979 --    89 C    1.367    91 C    1.277    96 C    1.124
    94   1 H    0.997 --    89 C    0.967
    95   7 N    3.570 --    97 C    1.132    98 C    1.061    91 C    1.047
                           100 O    0.114
    96   6 C    3.984 --    99 C    1.376    98 C    1.281    93 C    1.124
    97   6 C    3.941 --   100 O    1.615    95 N    1.132   101 O    1.108
    98   6 C    3.944 --   102 C    1.395    96 C    1.281    95 N    1.061
    99   6 C    3.975 --   103 C    1.457    96 C    1.376   104 H    0.968
                           102 C    0.104
   100   8 O    1.957 --    97 C    1.615   101 O    0.143    95 N    0.114
   101   8 O    2.268 --    97 C    1.108   105 C    0.902   100 O    0.143
   102   6 C    3.986 --   106 C    1.441    98 C    1.395   107 H    0.963
                            99 C    0.104
   103   6 C    3.984 --    99 C    1.457   106 C    1.418   108 H    0.970
   104   1 H    0.998 --    99 C    0.968
   105   6 C    3.909 --   109 C    1.007   110 C    1.004   111 H    0.962
                           101 O    0.902
   106   6 C    3.964 --   102 C    1.441   103 C    1.418   112 H    0.971
   107   1 H    0.997 --   102 C    0.963
   108   1 H    0.998 --   103 C    0.970
   109   6 C    3.989 --   105 C    1.007   114 H    0.984   113 H    0.983
                           115 H    0.981
   110   6 C    3.990 --   105 C    1.004   118 H    0.985   116 H    0.984
                           117 H    0.982
   111   1 H    0.998 --   105 C    0.962
   112   1 H    0.998 --   106 C    0.971
   113   1 H    0.996 --   109 C    0.983
   114   1 H    0.996 --   109 C    0.984
   115   1 H    0.995 --   109 C    0.981
   116   1 H    0.996 --   110 C    0.984
   117   1 H    0.995 --   110 C    0.982
   118   1 H    0.997 --   110 C    0.985
 ---------------------------------------------------------------------------

Topologies differ in total number of bonds
Writing topology from bond orders to xtbtopo.mol

molecular dipole:
                 x           y           z       tot (Debye)
 q only:       -0.178      -0.050      -0.343
   full:       -1.183       0.265      -0.724       3.589
molecular quadrupole (traceless):
                xx          xy          yy          xz          yz          zz
 q only:        9.827      -3.565     -15.429      14.438       1.878       5.602
  q+dip:       14.416      -1.374     -19.472      15.551       6.557       5.056
   full:       10.489      -1.562     -13.749      13.794       4.796       3.259


           -------------------------------------------------
          | TOTAL ENERGY             -173.594684488886 Eh   |
          | GRADIENT NORM               0.033948615131 Eh/α |
          | HOMO-LUMO GAP               0.880786172557 eV   |
           -------------------------------------------------

------------------------------------------------------------------------
 * finished run on 2022/01/14 at 14:47:18.168     
------------------------------------------------------------------------
 total:
 * wall-time:     0 d,  0 h,  0 min,  0.156 sec
 *  cpu-time:     0 d,  0 h,  0 min,  0.913 sec
 * ratio c/w:     5.849 speedup
 SCF:
 * wall-time:     0 d,  0 h,  0 min,  0.122 sec
 *  cpu-time:     0 d,  0 h,  0 min,  0.728 sec
 * ratio c/w:     5.961 speedup

