      -----------------------------------------------------------      
     |                   =====================                   |     
     |                           x T B                           |     
     |                   =====================                   |     
     |                         S. Grimme                         |     
     |          Mulliken Center for Theoretical Chemistry        |     
     |                    University of Bonn                     |     
      -----------------------------------------------------------      

   * xtb version 6.4.1 (1a32961) compiled by 'knkr256@seskscpg007.prim.scp' on 2021-10-19

   xtb is free software: you can redistribute it and/or modify it under
   the terms of the GNU Lesser General Public License as published by
   the Free Software Foundation, either version 3 of the License, or
   (at your option) any later version.
   
   xtb is distributed in the hope that it will be useful,
   but WITHOUT ANY WARRANTY; without even the implied warranty of
   MERCHANTABILITY or FITNESS FOR A PARTICULAR PURPOSE.  See the
   GNU Lesser General Public License for more details.
   
   Cite this work as:
   * C. Bannwarth, E. Caldeweyher, S. Ehlert, A. Hansen, P. Pracht,
     J. Seibert, S. Spicher, S. Grimme, WIREs Comput. Mol. Sci., 2020, 11,
     e01493. DOI: 10.1002/wcms.1493
   
   for GFN2-xTB:
   * C. Bannwarth, S. Ehlert and S. Grimme., J. Chem. Theory Comput., 2019,
     15, 1652-1671. DOI: 10.1021/acs.jctc.8b01176
   for GFN1-xTB:
   * S. Grimme, C. Bannwarth, P. Shushkov, J. Chem. Theory Comput., 2017,
     13, 1989-2009. DOI: 10.1021/acs.jctc.7b00118
   for GFN0-xTB:
   * P. Pracht, E. Caldeweyher, S. Ehlert, S. Grimme, ChemRxiv, 2019, preprint.
     DOI: 10.26434/chemrxiv.8326202.v1
   for GFN-FF:
   * S. Spicher and S. Grimme, Angew. Chem. Int. Ed., 2020, 59, 15665-15673.
     DOI: 10.1002/anie.202004239
   
   for ALPB and GBSA implicit solvation:
   * S. Ehlert, M. Stahn, S. Spicher, S. Grimme, J. Chem. Theory Comput.,
     2021, 17, 4250-4261. DOI: 10.1021/acs.jctc.1c00471
   
   for DFT-D4:
   * E. Caldeweyher, C. Bannwarth and S. Grimme, J. Chem. Phys., 2017,
     147, 034112. DOI: 10.1063/1.4993215
   * E. Caldeweyher, S. Ehlert, A. Hansen, H. Neugebauer, S. Spicher,
     C. Bannwarth and S. Grimme, J. Chem. Phys., 2019, 150, 154122.
     DOI: 10.1063/1.5090222
   * E. Caldeweyher, J.-M. Mewes, S. Ehlert and S. Grimme, Phys. Chem. Chem. Phys.
     2020, 22, 8499-8512. DOI: 10.1039/D0CP00502A
   
   for sTDA-xTB:
   * S. Grimme and C. Bannwarth, J. Chem. Phys., 2016, 145, 054103.
     DOI: 10.1063/1.4959605
   
   in the mass-spec context:
   * V. Asgeirsson, C. Bauer and S. Grimme, Chem. Sci., 2017, 8, 4879.
     DOI: 10.1039/c7sc00601b
   * J. Koopman and S. Grimme, ACS Omega 2019, 4, 12, 15120-15133.
     DOI: 10.1021/acsomega.9b02011
   
   for metadynamics refer to:
   * S. Grimme, J. Chem. Theory Comput., 2019, 155, 2847-2862
     DOI: 10.1021/acs.jctc.9b00143
   
   for SPH calculations refer to:
   * S. Spicher and S. Grimme, J. Chem. Theory Comput., 2021, 17, 1701-1714
     DOI: 10.1021/acs.jctc.0c01306
   
   with help from (in alphabetical order)
   P. Atkinson, C. Bannwarth, F. Bohle, G. Brandenburg, E. Caldeweyher
   M. Checinski, S. Dohm, S. Ehlert, S. Ehrlich, I. Gerasimov, J. Koopman
   C. Lavigne, S. Lehtola, F. März, M. Müller, F. Musil, H. Neugebauer
   J. Pisarek, C. Plett, P. Pracht, J. Seibert, P. Shushkov, S. Spicher
   M. Stahn, M. Steiner, T. Strunk, J. Stückrath, T. Rose, and J. Unsleber
   
 * started run on 2022/01/14 at 14:18:12.476     

           -------------------------------------------------
          |                Calculation Setup                |
           -------------------------------------------------

          program call               : xtb xtbopt.xyz --sp --alpb thf -P 6
          hostname                   : seskscpg007.prim.scp
          coordinate file            : xtbopt.xyz
          omp threads                :                     6
          number of atoms            :                    99
          number of electrons        :                   264
          charge                     :                     0
          spin                       :                   0.0
          first test random number   :      0.07618538684945

   ID    Z sym.   atoms
    1    7 N      1, 11
    2    6 C      2-6, 10, 12-15, 23, 24, 28, 32, 34, 38, 44, 45, 49, 53, 55,
                  59, 65, 66, 70, 74, 76, 80, 86-89, 91, 93, 96, 97
    3    1 H      7-9, 16-18, 20, 25-27, 29-31, 35-37, 39-41, 46-48, 50-52,
                  56-58, 60-62, 67-69, 71-73, 77-79, 81-85, 90, 92, 94, 98, 99
    4   77 Ir     19
    5    5 B      21, 42, 63
    6    8 O      22, 33, 43, 54, 64, 75
    7   16 S      95

molecular fragmentation (1/2 indicates fragments):
111111111111111111111111111111111111111111111111111111111111111111111111
111111111111122222222222222
# atoms in fragment 1/2:    85    14
 fragment masses (1/2) :      730.32      133.19
CMA distance (Bohr)    :  10.454
constraining FC (au)   :  0.0500

           -------------------------------------------------
          |                 G F N 2 - x T B                 |
           -------------------------------------------------

        Reference                      10.1021/acs.jctc.8b01176
      * Hamiltonian:
        H0-scaling (s, p, d)           1.850000    2.230000    2.230000
        zeta-weighting                 0.500000
      * Dispersion:
        s8                             2.700000
        a1                             0.520000
        a2                             5.000000
        s9                             5.000000
      * Repulsion:
        kExp                           1.500000    1.000000
        rExp                           1.000000
      * Coulomb:
        alpha                          2.000000
        third order                    shell-resolved
        anisotropic                    true
        a3                             3.000000
        a5                             4.000000
        cn-shift                       1.200000
        cn-exp                         4.000000
        max-rad                        5.000000

      * Solvation model:               ALPB
        Solvent                        thf
        Parameter file                 internal GFN2-xTB/ALPB
        Dielectric constant                7.6000E+00
        Reference state                gsolv [1 M gas/solution]
        Free energy shift                  5.3248E-03 Eh       3.3414E+00 kcal/mol
        Temperature                        2.9815E+02 K
        Density                            8.8300E-01 kg/L
        Solvent mass                       7.2106E+01 g/mol
        Interaction kernel             P16
        Born radius scaling (c1)           1.7311E+00
        Born radii integrator          GBOBC
        Born offset                        0.0000E+00 a0       0.0000E+00 AA
        H-bond correction              true
        Ion screening                  false
        Surface tension                    1.0000E-05 Eh       1.5569E+01 dyn/cm
        Grid points                               230 per atom
q/qsh data taken from xtbrestart
CAMM data taken from xtbrestart

          ...................................................
          :                      SETUP                      :
          :.................................................:
          :  # basis functions                 258          :
          :  # atomic orbitals                 256          :
          :  # shells                          150          :
          :  # electrons                       264          :
          :  max. iterations                   250          :
          :  Hamiltonian                  GFN2-xTB          :
          :  restarted?                       true          :
          :  GBSA solvation                   true          :
          :  PC potential                    false          :
          :  electronic temp.          300.0000000     K    :
          :  accuracy                    1.0000000          :
          :  -> integral cutoff          0.2500000E+02      :
          :  -> integral neglect         0.1000000E-07      :
          :  -> SCF convergence          0.1000000E-05 Eh   :
          :  -> wf. convergence          0.1000000E-03 e    :
          :  Broyden damping             0.4000000          :
          ...................................................

 iter      E             dE          RMSdq      gap      omega  full diag
   1   -145.8499874 -0.145850E+03  0.225E-05    0.89       0.0  T
   2   -145.8499874  0.134150E-10  0.204E-05    0.89     493.6  T
   3   -145.8499874 -0.443379E-11  0.169E-05    0.89     596.3  T

   *** convergence criteria satisfied after 3 iterations ***

         #    Occupation            Energy/Eh            Energy/eV
      -------------------------------------------------------------
         1        2.0000           -0.7146674             -19.4471
       ...           ...                  ...                  ...
       126        2.0000           -0.3645713              -9.9205
       127        2.0000           -0.3471007              -9.4451
       128        2.0000           -0.3312114              -9.0127
       129        2.0000           -0.3223042              -8.7703
       130        2.0000           -0.3193247              -8.6893
       131        2.0000           -0.3114452              -8.4749
       132        2.0000           -0.3092330              -8.4147 (HOMO)
       133                         -0.2765340              -7.5249 (LUMO)
       134                         -0.2485168              -6.7625
       135                         -0.2460439              -6.6952
       136                         -0.2382243              -6.4824
       137                         -0.2134024              -5.8070
       ...                                ...                  ...
       256                          3.7561414             102.2098
      -------------------------------------------------------------
                  HL-Gap            0.0326990 Eh            0.8898 eV
             Fermi-level           -0.2928394 Eh           -7.9686 eV

 SCC (total)                   0 d,  0 h,  0 min,  0.102 sec
 SCC setup                      ...        0 min,  0.002 sec (  2.303%)
 Dispersion                     ...        0 min,  0.003 sec (  2.925%)
 classical contributions        ...        0 min,  0.000 sec (  0.157%)
 integral evaluation            ...        0 min,  0.013 sec ( 12.767%)
 iterations                     ...        0 min,  0.042 sec ( 40.825%)
 molecular gradient             ...        0 min,  0.041 sec ( 40.223%)
 printout                       ...        0 min,  0.001 sec (  0.727%)

         :::::::::::::::::::::::::::::::::::::::::::::::::::::
         ::                     SUMMARY                     ::
         :::::::::::::::::::::::::::::::::::::::::::::::::::::
         :: total energy            -143.971589962922 Eh    ::
         :: total w/o Gsasa/hb      -143.930005852108 Eh    ::
         :: gradient norm              0.034373863069 Eh/a0 ::
         :: HOMO-LUMO gap              0.889785067469 eV    ::
         ::.................................................::
         :: SCC energy              -145.849987401015 Eh    ::
         :: -> isotropic ES            0.233695393715 Eh    ::
         :: -> anisotropic ES          0.013244633587 Eh    ::
         :: -> anisotropic XC          0.048762428853 Eh    ::
         :: -> dispersion             -0.140845162594 Eh    ::
         :: -> Gsolv                  -0.050397372289 Eh    ::
         ::    -> Gelec               -0.008813261475 Eh    ::
         ::    -> Gsasa               -0.044479977746 Eh    ::
         ::    -> Ghb                 -0.002428948513 Eh    ::
         ::    -> Gshift               0.005324815444 Eh    ::
         :: repulsion energy           1.870409654222 Eh    ::
         :: add. restraining           0.000000000000 Eh    ::
         :: total charge               0.000000000005 e     ::
         :::::::::::::::::::::::::::::::::::::::::::::::::::::

           -------------------------------------------------
          |                Property Printout                |
           -------------------------------------------------

    * Orbital Energies and Occupations

         #    Occupation            Energy/Eh            Energy/eV
      -------------------------------------------------------------
         1        2.0000           -0.7146674             -19.4471
       ...           ...                  ...                  ...
       120        2.0000           -0.3956115             -10.7651
       121        2.0000           -0.3887590             -10.5787
       122        2.0000           -0.3863836             -10.5140
       123        2.0000           -0.3827161             -10.4142
       124        2.0000           -0.3819251             -10.3927
       125        2.0000           -0.3795774             -10.3288
       126        2.0000           -0.3645713              -9.9205
       127        2.0000           -0.3471007              -9.4451
       128        2.0000           -0.3312114              -9.0127
       129        2.0000           -0.3223042              -8.7703
       130        2.0000           -0.3193247              -8.6893
       131        2.0000           -0.3114452              -8.4749
       132        2.0000           -0.3092330              -8.4147 (HOMO)
       133                         -0.2765340              -7.5249 (LUMO)
       134                         -0.2485168              -6.7625
       135                         -0.2460439              -6.6952
       136                         -0.2382243              -6.4824
       137                         -0.2134024              -5.8070
       138                         -0.2049192              -5.5761
       139                         -0.1968462              -5.3565
       140                         -0.1893710              -5.1530
       141                         -0.1666696              -4.5353
       142                         -0.1494742              -4.0674
       143                         -0.1269439              -3.4543
       ...                                ...                  ...
       256                          3.7561414             102.2098
      -------------------------------------------------------------
                  HL-Gap            0.0326990 Eh            0.8898 eV
             Fermi-level           -0.2928394 Eh           -7.9686 eV

     #   Z          covCN         q      C6AA      α(0)
     1   7 N        2.551    -0.121    23.665     7.225
     2   6 C        2.954     0.077    26.290     8.410
     3   6 C        2.918    -0.043    29.068     8.841
     4   6 C        2.923    -0.022    28.563     8.764
     5   6 C        2.915    -0.044    29.085     8.844
     6   6 C        2.892     0.048    26.919     8.507
     7   1 H        0.926     0.053     2.287     2.365
     8   1 H        0.926     0.056     2.249     2.345
     9   1 H        0.926     0.047     2.360     2.402
    10   6 C        2.953     0.073    26.371     8.423
    11   7 N        2.559    -0.126    23.759     7.239
    12   6 C        2.890     0.042    27.061     8.529
    13   6 C        2.915    -0.045    29.116     8.848
    14   6 C        2.922    -0.025    28.616     8.772
    15   6 C        2.918    -0.045    29.121     8.849
    16   1 H        0.926     0.046     2.372     2.408
    17   1 H        0.926     0.051     2.306     2.375
    18   1 H        0.926     0.076     2.021     2.223
    19  77 Ir       5.947    -0.156   388.163    36.434
    20   1 H        0.977     0.088     1.889     2.148
    21   5 B        2.630     0.403    16.025     6.762
    22   8 O        1.638    -0.409    21.034     6.191
    23   6 C        3.836     0.130    18.446     6.110
    24   6 C        3.755    -0.122    22.885     6.821
    25   1 H        0.925     0.054     2.275     2.359
    26   1 H        0.925     0.045     2.386     2.416
    27   1 H        0.925     0.051     2.307     2.375
    28   6 C        3.754    -0.109    22.638     6.784
    29   1 H        0.925     0.047     2.353     2.399
    30   1 H        0.925     0.041     2.432     2.439
    31   1 H        0.925     0.028     2.620     2.531
    32   6 C        3.841     0.131    18.435     6.108
    33   8 O        1.637    -0.403    20.926     6.175
    34   6 C        3.755    -0.120    22.859     6.817
    35   1 H        0.925     0.049     2.326     2.385
    36   1 H        0.925     0.046     2.369     2.407
    37   1 H        0.925     0.050     2.321     2.383
    38   6 C        3.754    -0.120    22.855     6.817
    39   1 H        0.925     0.047     2.357     2.401
    40   1 H        0.925     0.053     2.279     2.361
    41   1 H        0.925     0.045     2.382     2.413
    42   5 B        2.624     0.404    16.043     6.772
    43   8 O        1.637    -0.384    20.555     6.120
    44   6 C        3.837     0.129    18.466     6.114
    45   6 C        3.755    -0.125    22.961     6.833
    46   1 H        0.925     0.055     2.258     2.350
    47   1 H        0.925     0.056     2.252     2.347
    48   1 H        0.925     0.050     2.325     2.385
    49   6 C        3.755    -0.122    22.887     6.822
    50   1 H        0.925     0.048     2.340     2.392
    51   1 H        0.925     0.046     2.375     2.410
    52   1 H        0.925     0.053     2.285     2.364
    53   6 C        3.832     0.128    18.485     6.117
    54   8 O        1.637    -0.383    20.537     6.117
    55   6 C        3.755    -0.124    22.937     6.829
    56   1 H        0.925     0.054     2.273     2.357
    57   1 H        0.925     0.054     2.268     2.355
    58   1 H        0.925     0.048     2.342     2.393
    59   6 C        3.755    -0.121    22.868     6.819
    60   1 H        0.925     0.043     2.406     2.426
    61   1 H        0.925     0.052     2.290     2.367
    62   1 H        0.925     0.049     2.334     2.389
    63   5 B        2.625     0.401    16.074     6.778
    64   8 O        1.637    -0.379    20.450     6.104
    65   6 C        3.832     0.125    18.527     6.124
    66   6 C        3.755    -0.130    23.053     6.846
    67   1 H        0.925     0.059     2.213     2.327
    68   1 H        0.925     0.054     2.274     2.358
    69   1 H        0.925     0.050     2.321     2.382
    70   6 C        3.755    -0.129    23.030     6.843
    71   1 H        0.925     0.060     2.197     2.318
    72   1 H        0.925     0.051     2.313     2.378
    73   1 H        0.925     0.052     2.301     2.372
    74   6 C        3.828     0.127    18.504     6.121
    75   8 O        1.637    -0.380    20.469     6.107
    76   6 C        3.755    -0.124    22.933     6.828
    77   1 H        0.925     0.051     2.312     2.378
    78   1 H        0.925     0.053     2.279     2.361
    79   1 H        0.925     0.055     2.262     2.352
    80   6 C        3.755    -0.122    22.903     6.824
    81   1 H        0.925     0.041     2.442     2.444
    82   1 H        0.925     0.050     2.319     2.381
    83   1 H        0.925     0.054     2.267     2.354
    84   1 H        0.926     0.053     2.285     2.364
    85   1 H        0.926     0.050     2.323     2.383
    86   6 C        2.832    -0.023    28.567     8.758
    87   6 C        2.922    -0.034    28.852     8.809
    88   6 C        2.934    -0.046    29.146     8.854
    89   6 C        2.914    -0.045    29.120     8.849
    90   1 H        0.926     0.026     2.639     2.540
    91   6 C        3.004     0.030    27.311     8.573
    92   1 H        0.926     0.044     2.394     2.420
    93   6 C        3.144    -0.008    27.968     8.653
    94   1 H        0.925     0.031     2.569     2.506
    95  16 S        2.248    -0.086   144.645    20.242
    96   6 C        3.067    -0.055    29.291     8.874
    97   6 C        2.934    -0.019    28.480     8.752
    98   1 H        0.926     0.040     2.453     2.449
    99   1 H        0.926     0.049     2.327     2.385

 Mol. C6AA /au·bohr⁶  :     112172.615202
 Mol. C8AA /au·bohr⁸  :    3085519.102590
 Mol. α(0) /au        :        522.874848


Wiberg/Mayer (AO) data.
largest (>0.10) Wiberg bond orders for each atom

 ---------------------------------------------------------------------------
     #   Z sym  total        # sym  WBO       # sym  WBO       # sym  WBO
 ---------------------------------------------------------------------------
     1   7 N    3.403 --     6 C    1.388     2 C    1.310    19 Ir   0.445
     2   6 C    3.978 --     3 C    1.348     1 N    1.310    10 C    1.093
     3   6 C    3.988 --     4 C    1.484     2 C    1.348     9 H    0.962
                             6 C    0.106
     4   6 C    3.985 --     3 C    1.484     5 C    1.381    84 H    0.969
     5   6 C    3.979 --     6 C    1.461     4 C    1.381     8 H    0.968
     6   6 C    3.978 --     5 C    1.461     1 N    1.388     7 H    0.957
                             3 C    0.106
     7   1 H    0.997 --     6 C    0.957
     8   1 H    0.996 --     5 C    0.968
     9   1 H    0.997 --     3 C    0.962
    10   6 C    3.979 --    15 C    1.353    11 N    1.302     2 C    1.093
    11   7 N    3.407 --    12 C    1.386    10 C    1.302    19 Ir   0.435
    12   6 C    3.973 --    13 C    1.458    11 N    1.386    18 H    0.948
                            15 C    0.105
    13   6 C    3.982 --    12 C    1.458    14 C    1.384    17 H    0.969
    14   6 C    3.983 --    15 C    1.479    13 C    1.384    85 H    0.969
    15   6 C    3.989 --    14 C    1.479    10 C    1.353    16 H    0.962
                            12 C    0.105
    16   1 H    0.997 --    15 C    0.962
    17   1 H    0.997 --    13 C    0.969
    18   1 H    0.994 --    12 C    0.948
    19  77 Ir   5.172 --    63 B    0.867    42 B    0.857    21 B    0.725
                            86 C    0.589    20 H    0.530     1 N    0.445
                            11 N    0.435
    20   1 H    0.990 --    19 Ir   0.530    86 C    0.351
    21   5 B    3.270 --    33 O    1.110    22 O    1.090    19 Ir   0.725
    22   8 O    2.190 --    21 B    1.090    23 C    0.943
    23   6 C    3.944 --    24 C    0.997    28 C    0.990    22 O    0.943
                            32 C    0.941
    24   6 C    3.994 --    23 C    0.997    26 H    0.984    27 H    0.983
                            25 H    0.983
    25   1 H    0.997 --    24 C    0.983
    26   1 H    0.997 --    24 C    0.984
    27   1 H    0.997 --    24 C    0.983
    28   6 C    3.997 --    23 C    0.990    31 H    0.985    29 H    0.984
                            30 H    0.984
    29   1 H    0.997 --    28 C    0.984
    30   1 H    0.998 --    28 C    0.984
    31   1 H    0.999 --    28 C    0.985
    32   6 C    3.940 --    38 C    0.997    34 C    0.991    23 C    0.941
                            33 O    0.939
    33   8 O    2.201 --    21 B    1.110    32 C    0.939
    34   6 C    3.994 --    32 C    0.991    36 H    0.984    35 H    0.982
                            37 H    0.982
    35   1 H    0.998 --    34 C    0.982
    36   1 H    0.997 --    34 C    0.984
    37   1 H    0.997 --    34 C    0.982
    38   6 C    3.994 --    32 C    0.997    41 H    0.984    39 H    0.983
                            40 H    0.983
    39   1 H    0.998 --    38 C    0.983
    40   1 H    0.997 --    38 C    0.983
    41   1 H    0.997 --    38 C    0.984
    42   5 B    3.333 --    43 O    1.117    54 O    1.107    19 Ir   0.857
    43   8 O    2.224 --    42 B    1.117    44 C    0.936
    44   6 C    3.937 --    45 C    0.997    49 C    0.991    53 C    0.939
                            43 O    0.936
    45   6 C    3.993 --    44 C    0.997    48 H    0.983    46 H    0.982
                            47 H    0.982
    46   1 H    0.997 --    45 C    0.982
    47   1 H    0.997 --    45 C    0.982
    48   1 H    0.996 --    45 C    0.983
    49   6 C    3.994 --    44 C    0.991    50 H    0.983    51 H    0.983
                            52 H    0.980
    50   1 H    0.997 --    49 C    0.983
    51   1 H    0.998 --    49 C    0.983
    52   1 H    0.997 --    49 C    0.980
    53   6 C    3.938 --    55 C    0.996    59 C    0.992    44 C    0.939
                            54 O    0.934
    54   8 O    2.226 --    42 B    1.107    53 C    0.934
    55   6 C    3.993 --    53 C    0.996    58 H    0.983    57 H    0.983
                            56 H    0.983
    56   1 H    0.997 --    55 C    0.983
    57   1 H    0.997 --    55 C    0.983
    58   1 H    0.996 --    55 C    0.983
    59   6 C    3.994 --    53 C    0.992    62 H    0.983    61 H    0.983
                            60 H    0.981
    60   1 H    0.998 --    59 C    0.981
    61   1 H    0.996 --    59 C    0.983
    62   1 H    0.997 --    59 C    0.983
    63   5 B    3.360 --    75 O    1.119    64 O    1.112    19 Ir   0.867
    64   8 O    2.228 --    63 B    1.112    65 C    0.938
    65   6 C    3.937 --    70 C    0.996    66 C    0.991    64 O    0.938
                            74 C    0.937
    66   6 C    3.992 --    65 C    0.991    69 H    0.983    68 H    0.983
                            67 H    0.979
    67   1 H    0.997 --    66 C    0.979
    68   1 H    0.997 --    66 C    0.983
    69   1 H    0.996 --    66 C    0.983
    70   6 C    3.992 --    65 C    0.996    72 H    0.983    73 H    0.982
                            71 H    0.982
    71   1 H    0.996 --    70 C    0.982
    72   1 H    0.996 --    70 C    0.983
    73   1 H    0.997 --    70 C    0.982
    74   6 C    3.935 --    76 C    0.996    80 C    0.991    65 C    0.937
                            75 O    0.936
    75   8 O    2.234 --    63 B    1.119    74 C    0.936
    76   6 C    3.993 --    74 C    0.996    77 H    0.983    78 H    0.982
                            79 H    0.982
    77   1 H    0.996 --    76 C    0.983
    78   1 H    0.997 --    76 C    0.982
    79   1 H    0.997 --    76 C    0.982
    80   6 C    3.995 --    74 C    0.991    81 H    0.984    83 H    0.983
                            82 H    0.983
    81   1 H    0.998 --    80 C    0.984
    82   1 H    0.997 --    80 C    0.983
    83   1 H    0.996 --    80 C    0.983
    84   1 H    0.996 --     4 C    0.969
    85   1 H    0.996 --    14 C    0.969
    86   6 C    3.949 --    88 C    1.405    87 C    1.336    19 Ir   0.589
                            20 H    0.351
    87   6 C    3.990 --    89 C    1.494    86 C    1.336    90 H    0.964
    88   6 C    3.988 --    86 C    1.405    91 C    1.393    92 H    0.959
                            89 C    0.104
    89   6 C    3.988 --    87 C    1.494    93 C    1.326    94 H    0.967
                            88 C    0.104
    90   1 H    0.998 --    87 C    0.964
    91   6 C    3.952 --    88 C    1.393    93 C    1.283    95 S    1.089
    92   1 H    0.997 --    88 C    0.959
    93   6 C    3.983 --    89 C    1.326    91 C    1.283    96 C    1.188
    94   1 H    0.998 --    89 C    0.967
    95  16 S    2.510 --    97 C    1.139    91 C    1.089    96 C    0.101
    96   6 C    3.986 --    97 C    1.689    93 C    1.188    98 H    0.963
                            95 S    0.101
    97   6 C    3.940 --    96 C    1.689    95 S    1.139    99 H    0.969
    98   1 H    0.998 --    96 C    0.963
    99   1 H    0.997 --    97 C    0.969
 ---------------------------------------------------------------------------

Topologies differ in total number of bonds
Writing topology from bond orders to xtbtopo.mol

molecular dipole:
                 x           y           z       tot (Debye)
 q only:       -0.139       0.397      -1.190
   full:       -1.570       0.586      -1.704       6.076
molecular quadrupole (traceless):
                xx          xy          yy          xz          yz          zz
 q only:       13.898       2.544      -0.246      -2.239      13.321     -13.652
  q+dip:       16.289       5.602      -2.242      -7.518      16.559     -14.048
   full:       13.252       6.169       0.792      -9.587      13.649     -14.044


           -------------------------------------------------
          | TOTAL ENERGY             -143.971589962922 Eh   |
          | GRADIENT NORM               0.034373863069 Eh/α |
          | HOMO-LUMO GAP               0.889785067469 eV   |
           -------------------------------------------------

------------------------------------------------------------------------
 * finished run on 2022/01/14 at 14:18:12.615     
------------------------------------------------------------------------
 total:
 * wall-time:     0 d,  0 h,  0 min,  0.139 sec
 *  cpu-time:     0 d,  0 h,  0 min,  0.808 sec
 * ratio c/w:     5.806 speedup
 SCF:
 * wall-time:     0 d,  0 h,  0 min,  0.103 sec
 *  cpu-time:     0 d,  0 h,  0 min,  0.617 sec
 * ratio c/w:     5.958 speedup

