118
 energy: -179.803174133054 gnorm: 0.006289846381 xtb: 6.4.1 (1a32961)
N        -0.96510000000004   -2.11529999999998   -0.24090000000000
C        -2.24700000000000   -1.69839999999990   -0.36219999999998
C        -3.14040000000002   -2.36820000000001   -1.21199999999998
C        -2.70220000000000   -3.47559999999997   -1.93050000000001
C        -1.37779999999999   -3.89880000000000   -1.78760000000001
C        -0.54289999999994   -3.18670000000002   -0.93510000000000
H         0.49810000000002   -3.45630000000000   -0.78940000000000
H        -0.99570000000000   -4.76030000000000   -2.32770000000002
H        -4.16500000000001   -2.02889999999999   -1.31830000000000
C        -2.62130000000000   -0.50949999999994    0.44099999999999
N        -1.62600000000000    0.07329999999999    1.16020000000003
C        -1.89679999999998    1.15240000000000    1.91689999999998
C        -3.17230000000000    1.70329999999999    1.99649999999999
C        -4.20510000000001    1.11739999999999    1.26269999999999
C        -3.92610000000001    0.00250000000000    0.47820000000002
H        -4.71960000000001   -0.46420000000001   -0.09520000000000
H        -3.34630000000000    2.57510000000001    2.62070000000001
H        -1.04449999999999    1.57420000000000    2.43690000000000
Ir        0.42150000000000   -0.81650000000000    0.91330000000000
H         0.87260000000000   -2.23030000000000    1.54050000000000
B         0.50670000000000    0.41560000000000   -0.81540000000000
O         0.19500000000000   -0.04700000000001   -2.09150000000001
C         0.00649999999998    1.10040000000001   -2.95430000000000
C         0.49020000000001    0.74740000000001   -4.35779999999999
H         1.51609999999997    0.37380000000000   -4.33700000000000
H         0.44730000000000    1.62240000000000   -5.01670000000001
H        -0.14740000000000   -0.03390000000000   -4.78429999999999
C        -1.50119999999997    1.39560000000001   -2.96669999999999
H        -1.75370000000000    2.21460000000002   -3.64850000000000
H        -2.03200000000001    0.49450000000000   -3.28930000000000
H        -1.85170000000000    1.65210000000000   -1.96220000000000
C         0.84230000000000    2.20670000000001   -2.22040000000002
O         0.75200000000001    1.78260000000001   -0.83689999999998
C         2.32930000000004    2.18620000000000   -2.59900000000001
H         2.74130000000000    1.18500000000000   -2.45749999999999
H         2.48870000000000    2.51300000000001   -3.63180000000000
H         2.87199999999999    2.86270000000000   -1.93199999999999
C         0.28439999999997    3.62290000000000   -2.33659999999999
H        -0.72650000000001    3.69039999999999   -1.92910000000000
H         0.92129999999999    4.31479999999999   -1.77610000000000
H         0.26430000000000    3.94810000000001   -3.38319999999999
B         1.56300000000000    0.60959999999999    1.84840000000000
O         2.92780000000000    0.55230000000000    2.15020000000000
C         3.36329999999997    1.88659999999999    2.50260000000002
C         4.53139999999999    1.78589999999998    3.47740000000000
H         4.27910000000001    1.16089999999999    4.33690000000002
H         5.39390000000000    1.33790000000000    2.97340000000000
H         4.82390000000000    2.77869999999999    3.83820000000000
C         3.79700000000001    2.56850000000000    1.19669999999999
H         4.20020000000000    3.57090000000000    1.37680000000001
H         4.56740000000000    1.95559999999999    0.72110000000000
H         2.95240000000001    2.63260000000000    0.50540000000001
C         2.05040000000000    2.50090000000001    3.09320000000000
O         1.03749999999998    1.81620000000001    2.31910000000000
C         1.89099999999999    4.00449999999999    2.88650000000001
H         1.87290000000000    4.25440000000001    1.82409999999999
H         0.94940000000002    4.34259999999999    3.33170000000001
H         2.71080000000002    4.55149999999998    3.36630000000000
C         1.82469999999997    2.13200000000001    4.56519999999999
H         1.92610000000000    1.05330000000000    4.71320000000001
H         2.52609999999999    2.65279999999999    5.22540000000000
H         0.80630000000003    2.41580000000002    4.84899999999997
B         2.27820000000001   -1.33090000000000    0.17410000000001
O         2.89460000000000   -2.57740000000000    0.38450000000001
C         4.26930000000001   -2.48200000000002   -0.07210000000004
C         5.10900000000000   -2.05380000000000    1.14010000000002
H         4.76350000000000   -1.08740000000001    1.51750000000000
H         4.98049999999999   -2.79470000000001    1.93590000000001
H         6.17420000000000   -1.99290000000001    0.89300000000000
C         4.71949999999998   -3.84660000000000   -0.58469999999999
H         4.75280000000000   -4.56130000000002    0.24420000000001
H         5.72330000000002   -3.78370000000000   -1.02010000000002
H         4.03500000000000   -4.23600000000001   -1.34170000000001
C         4.16440000000002   -1.36219999999998   -1.16300000000001
O         3.08520000000002   -0.55030000000000   -0.65400000000001
C         5.40719999999998   -0.48869999999999   -1.31550000000003
H         6.27320000000001   -1.09009999999999   -1.61530000000001
H         5.23300000000000    0.26929999999999   -2.08589999999999
H         5.64270000000000    0.02650000000002   -0.38240000000003
C         3.71800000000001   -1.89830000000003   -2.53109999999995
H         2.82530000000003   -2.52160000000001   -2.42740000000000
H         3.46090000000001   -1.05249999999999   -3.17550000000000
H         4.50570000000002   -2.48290000000001   -3.01790000000003
H        -3.38499999999999   -4.00130000000000   -2.59309999999997
H        -5.21400000000000    1.52080000000001    1.29960000000000
C         0.23590000000004   -1.68140000000001    2.96029999999997
C        -1.08022143921276   -2.10687844516382    3.32031622924970
C         1.26114989923206   -2.00602895155744    3.85614509485218
B        -2.45736482362350   -2.36690434337870    2.53617803992144
C        -1.30311091672042   -2.67537824319792    4.58453995714725
C         1.02059543895794   -2.69799797334818    5.04331749650321
H         2.28221404600192   -1.78383343861526    3.58035576507091
C        -2.62495864081222   -3.59785475868663    1.66875965827905
N        -3.71600041023264   -1.72691018604044    2.88294172496512
C        -0.27471871888661   -3.01814361980092    5.43918913289216
H        -2.30677758335507   -2.96750908684896    4.85893371584603
C         2.12572058149415   -3.32726898303765    5.82939467977780
C        -3.81104022107813   -3.85057957333829    1.04724775040210
H        -1.82179679541373   -4.30517889467990    1.50934226050295
C        -3.82031761531936   -0.79021083234890    3.99840037194622
C        -4.86321056231200   -1.92821062716586    2.13936238943307
H        -0.46561437902589   -3.56900657076040    6.34894298484285
F         3.33608647900883   -2.72334115733842    5.72216016757833
F         1.86800283845505   -3.40209227202784    7.16499377553341
F         2.33557428945495   -4.62448595500844    5.45032370676989
C        -4.89806346686819   -2.94571856497707    1.14748865551832
H        -3.94562345512024   -4.71406014962294    0.40615228808447
H        -2.83884267493242   -0.68123349539789    4.45956645223827
H        -4.53391136970129   -1.17807788864195    4.73970646803574
H        -4.15823976435053    0.19814586513119    3.66394115818017
C        -6.00861497447064   -1.11107592995960    2.26274938595879
C        -5.97191067242658   -2.99976716845075    0.24371517861704
C        -7.02974152572012   -1.16054471575655    1.33210723903770
H        -6.07940021646198   -0.37452121560668    3.04573317879182
C        -7.00046859626253   -2.08129349206664    0.28936658799340
H        -5.95479522078492   -3.74822227000016   -0.53770273819883
H        -7.84860854875276   -0.45768089679184    1.40165432858478
H        -7.77405761020066   -2.07802583179484   -0.46591395266013
