105
 energy: -153.018814732384 gnorm: 0.076225667259 xtb: 6.4.1 (1a32961)
N        -0.96510000000000   -2.11530000000000   -0.24090000000000
C        -2.24700000000000   -1.69840000000000   -0.36220000000000
C        -3.14040000000000   -2.36820000000000   -1.21200000000000
C        -2.70220000000000   -3.47560000000000   -1.93050000000000
C        -1.37780000000000   -3.89880000000000   -1.78760000000000
C        -0.54290000000000   -3.18670000000000   -0.93510000000000
H         0.49810000000000   -3.45630000000000   -0.78940000000000
H        -0.99570000000000   -4.76030000000000   -2.32770000000000
H        -4.16500000000000   -2.02890000000000   -1.31830000000000
C        -2.62130000000000   -0.50950000000000    0.44100000000000
N        -1.62600000000000    0.07330000000000    1.16020000000000
C        -1.89680000000000    1.15240000000000    1.91690000000000
C        -3.17230000000000    1.70330000000000    1.99650000000000
C        -4.20510000000000    1.11740000000000    1.26270000000000
C        -3.92610000000000    0.00250000000000    0.47820000000000
H        -4.71960000000000   -0.46420000000000   -0.09520000000000
H        -3.34630000000000    2.57510000000000    2.62070000000000
H        -1.04450000000000    1.57420000000000    2.43690000000000
Ir        0.42150000000000   -0.81650000000000    0.91330000000000
H         0.87260000000000   -2.23030000000000    1.54050000000000
B         0.50670000000000    0.41560000000000   -0.81540000000000
O         0.19500000000000   -0.04700000000000   -2.09150000000000
C         0.00650000000000    1.10040000000000   -2.95430000000000
C         0.49020000000000    0.74740000000000   -4.35780000000000
H         1.51610000000000    0.37380000000000   -4.33700000000000
H         0.44730000000000    1.62240000000000   -5.01670000000000
H        -0.14740000000000   -0.03390000000000   -4.78430000000000
C        -1.50120000000000    1.39560000000000   -2.96670000000000
H        -1.75370000000000    2.21460000000000   -3.64850000000000
H        -2.03200000000000    0.49450000000000   -3.28930000000000
H        -1.85170000000000    1.65210000000000   -1.96220000000000
C         0.84230000000000    2.20670000000000   -2.22040000000000
O         0.75200000000000    1.78260000000000   -0.83690000000000
C         2.32930000000000    2.18620000000000   -2.59900000000000
H         2.74130000000000    1.18500000000000   -2.45750000000000
H         2.48870000000000    2.51300000000000   -3.63180000000000
H         2.87200000000000    2.86270000000000   -1.93200000000000
C         0.28440000000000    3.62290000000000   -2.33660000000000
H        -0.72650000000000    3.69040000000000   -1.92910000000000
H         0.92130000000000    4.31480000000000   -1.77610000000000
H         0.26430000000000    3.94810000000000   -3.38320000000000
B         1.56300000000000    0.60960000000000    1.84840000000000
O         2.92780000000000    0.55230000000000    2.15020000000000
C         3.36330000000000    1.88660000000000    2.50260000000000
C         4.53140000000000    1.78590000000000    3.47740000000000
H         4.27910000000000    1.16090000000000    4.33690000000000
H         5.39390000000000    1.33790000000000    2.97340000000000
H         4.82390000000000    2.77870000000000    3.83820000000000
C         3.79700000000000    2.56850000000000    1.19670000000000
H         4.20020000000000    3.57090000000000    1.37680000000000
H         4.56740000000000    1.95560000000000    0.72110000000000
H         2.95240000000000    2.63260000000000    0.50540000000000
C         2.05040000000000    2.50090000000000    3.09320000000000
O         1.03750000000000    1.81620000000000    2.31910000000000
C         1.89100000000000    4.00450000000000    2.88650000000000
H         1.87290000000000    4.25440000000000    1.82410000000000
H         0.94940000000000    4.34260000000000    3.33170000000000
H         2.71080000000000    4.55150000000000    3.36630000000000
C         1.82470000000000    2.13200000000000    4.56520000000000
H         1.92610000000000    1.05330000000000    4.71320000000000
H         2.52610000000000    2.65280000000000    5.22540000000000
H         0.80630000000000    2.41580000000000    4.84900000000000
B         2.27820000000000   -1.33090000000000    0.17410000000000
O         2.89460000000000   -2.57740000000000    0.38450000000000
C         4.26930000000000   -2.48200000000000   -0.07210000000000
C         5.10900000000000   -2.05380000000000    1.14010000000000
H         4.76350000000000   -1.08740000000000    1.51750000000000
H         4.98050000000000   -2.79470000000000    1.93590000000000
H         6.17420000000000   -1.99290000000000    0.89300000000000
C         4.71950000000000   -3.84660000000000   -0.58470000000000
H         4.75280000000000   -4.56130000000000    0.24420000000000
H         5.72330000000000   -3.78370000000000   -1.02010000000000
H         4.03500000000000   -4.23600000000000   -1.34170000000000
C         4.16440000000000   -1.36220000000000   -1.16300000000000
O         3.08520000000000   -0.55030000000000   -0.65400000000000
C         5.40720000000000   -0.48870000000000   -1.31550000000000
H         6.27320000000000   -1.09010000000000   -1.61530000000000
H         5.23300000000000    0.26930000000000   -2.08590000000000
H         5.64270000000000    0.02650000000000   -0.38240000000000
C         3.71800000000000   -1.89830000000000   -2.53110000000000
H         2.82530000000000   -2.52160000000000   -2.42740000000000
H         3.46090000000000   -1.05250000000000   -3.17550000000000
H         4.50570000000000   -2.48290000000000   -3.01790000000000
H        -3.38500000000000   -4.00130000000000   -2.59310000000000
H        -5.21400000000000    1.52080000000000    1.29960000000000
C         0.23590000000000   -1.68140000000000    2.96030000000000
C        -1.00872199628557   -2.10478742171126    3.40621281500344
C         1.28589199992108   -1.73102973489919    3.88244706190707
C        -1.22746970863027   -2.58233890675816    4.70558835353118
H        -1.87978973559882   -2.08981859778564    2.76174960948370
C         1.10634158105465   -2.24905773850544    5.14870986774947
H         2.27181753928681   -1.40858695870293    3.57415800796032
C        -0.13579336984647   -2.75274332387058    5.57975518152996
O        -2.54104571788092   -2.81484356700943    4.98612274291219
H         1.96323867356640   -2.34420633198217    5.80055446070579
C        -0.14898214948624   -3.62389267583547    6.77455424688529
C        -3.00298279201877   -2.87668188389541    6.32110202924131
O        -0.88478336944984   -4.60046258341658    6.86072738398112
C         0.86404317241501   -3.33849997379907    7.85925393191640
H        -4.05849915133888   -2.59875564898808    6.27864687798479
H        -2.45711621406955   -2.17661521789874    6.95961059057287
H        -2.90134945177369   -3.88432139976117    6.73226757893106
H         1.03209133589010   -2.27189057149264    7.98489392166863
H         1.80836928649475   -3.82348226187535    7.59656781663206
H         0.51299495489492   -3.78142762846883    8.79056153126058
105
 energy: -153.025293265677 gnorm: 0.047032360057 xtb: 6.4.1 (1a32961)
N        -0.96131777225785   -2.09966725188158   -0.25257078907315
C        -2.23906260315421   -1.68990608163635   -0.36462123958106
C        -3.13421326560308   -2.36166444500318   -1.20584372542163
C        -2.70413720825999   -3.46344003164829   -1.92149387973571
C        -1.38460892818247   -3.88254778643318   -1.78233506059714
C        -0.55412943073207   -3.16780345399178   -0.94084882785554
H         0.47953240938827   -3.44788674925512   -0.79131610168399
H        -1.00850402257888   -4.74287216296387   -2.31724268113065
H        -4.15474946479938   -2.02634269984508   -1.30957750151777
C        -2.61027558882197   -0.51205370072515    0.43493341034046
N        -1.61797460666286    0.06962240633494    1.14434418260650
C        -1.89677003615017    1.13923150842892    1.89286788393027
C        -3.16426099661159    1.68743093208026    1.98228264466453
C        -4.19526719164357    1.10332606682886    1.25569812444767
C        -3.91359160291171   -0.00324935147827    0.47546297620349
H        -4.70504493216099   -0.46714071301856   -0.09288699653879
H        -3.33949153079732    2.55051474787824    2.60906935917347
H        -1.05351286270536    1.55748704820884    2.42149451509007
Ir        0.42150000000000   -0.81650000000000    0.91330000000000
H         0.87260000000000   -2.23030000000000    1.54050000000000
B         0.48861220130368    0.42455895340377   -0.79040412767019
O         0.17483662326465   -0.03506459295443   -2.06268016492358
C         0.01057466699844    1.09659145875609   -2.94380763815713
C         0.49004135654938    0.74674589294686   -4.34847468035276
H         1.50893952284316    0.36994962543841   -4.32688308369353
H         0.44534532637321    1.62208478946375   -4.99703584057473
H        -0.14873505591029   -0.02915891029248   -4.76887738024088
C        -1.49346485106835    1.39913070897326   -2.97029679001886
H        -1.73163945333282    2.21194050051560   -3.65465032655712
H        -2.02340619930347    0.50200529753841   -3.29019289574890
H        -1.84012538668411    1.65406569404308   -1.96872637605045
C         0.83223755860218    2.20658705129144   -2.21261966999034
O         0.75523406425743    1.77981981556302   -0.83534410884829
C         2.31479508953062    2.19021926429389   -2.59983166908466
H         2.71892524805854    1.19112376373762   -2.44972392237218
H         2.46641536124847    2.51155303766835   -3.62956444478574
H         2.85688624451438    2.86511397357847   -1.93852978778239
C         0.28088395906341    3.62270991350448   -2.33982032146991
H        -0.72242219688780    3.69176872254474   -1.92770334000534
H         0.92052815184917    4.30633598696542   -1.78320726827858
H         0.26338721826184    3.93506261874776   -3.38403602993920
B         1.56406546686265    0.61864701703383    1.85462014661223
O         2.92394177197693    0.56569532124355    2.13651827196044
C         3.36300079365741    1.88705410459214    2.50946280143419
C         4.53267350645841    1.78885481066944    3.48029480679408
H         4.28046619572436    1.16073244482249    4.33052910042675
H         5.38766146536884    1.34471683337610    2.97242484225793
H         4.81547016471863    2.77912134217888    3.83616509106924
C         3.79904234263648    2.57397919388567    1.21102006799133
H         4.20059286154051    3.56952847028919    1.39501779665634
H         4.56294464413772    1.96223144038167    0.73423792260620
H         2.95089056124187    2.62628141249918    0.52973794585594
C         2.05281208617851    2.50538633295550    3.08951709471167
O         1.04011150035703    1.80968275874569    2.33576987696394
C         1.89405943464304    4.00744393126676    2.88892469048035
H         1.86870845614963    4.25073915320472    1.83061997812408
H         0.95656672426579    4.33656136173867    3.33529597645463
H         2.71452513287141    4.54370981702289    3.36503988053169
C         1.83147009360051    2.14071177387012    4.56159238179290
H         1.93262249759746    1.06482636539463    4.69898995893092
H         2.53264373583577    2.66238119322011    5.21055240022113
H         0.81698109934332    2.41953825299149    4.84548801536258
B         2.27820000000000   -1.33090000000000    0.17410000000000
O         2.90079945988732   -2.56114118302719    0.39209116517149
C         4.26532070253881   -2.48354993759452   -0.07711357179229
C         5.10973064676652   -2.05852553391148    1.12857807337676
H         4.75344021847895   -1.09826565206107    1.49910861518154
H         4.97815062912230   -2.79408833111982    1.92128145077715
H         6.16737449158494   -1.99877009132467    0.87644702567132
C         4.71985320977202   -3.84572935656946   -0.58695229708347
H         4.74936597489402   -4.55016758624659    0.24298827407657
H         5.71758983392970   -3.77432086529208   -1.01920153339656
H         4.03419480576303   -4.23325799942079   -1.33562202143418
C         4.16633669010538   -1.36076248683439   -1.15757381855735
O         3.07389301987665   -0.56402496995271   -0.66183762624356
C         5.40947877112883   -0.49233811674984   -1.31511064402166
H         6.26561382294244   -1.09814295023745   -1.61075192601673
H         5.23109152527826    0.25852775085587   -2.08357382205515
H         5.63709336145730    0.02227089115869   -0.38613732215926
C         3.72933609915544   -1.89995423153485   -2.52560016448892
H         2.83729012851611   -2.51536218234951   -2.41703959751010
H         3.47218379623745   -1.05841025353238   -3.16740763551923
H         4.51939463924156   -2.47705614559460   -3.00317630207252
H        -3.38367834047358   -3.98833805042333   -2.57909270265662
H        -5.19939597431523    1.50416137326367    1.29617292870910
C         0.23590000000001   -1.68140000000000    2.96030000000000
C        -1.00769812951631   -2.10482598151082    3.40671765503206
C         1.28699288760355   -1.73105258436829    3.88760523089057
C        -1.22640709318770   -2.58114204289270    4.70470258625348
H        -1.87685594718820   -2.09037452983230    2.76363647856696
C         1.10608731843558   -2.24724898096334    5.14858880750858
H         2.27075741929372   -1.40854164718693    3.58087352869412
C        -0.13479835804274   -2.75142296517535    5.57965222316631
O        -2.53898996267972   -2.81405405565674    4.98495726224431
H         1.96063438628742   -2.34121940904557    5.80029878407972
C        -0.14914363346185   -3.61808211078814    6.77059518620190
C        -3.00253386144023   -2.87570805984220    6.31825539518935
O        -0.88399531380809   -4.59351900900169    6.85691950720291
C         0.86153755648986   -3.33342669343009    7.85726810813113
H        -4.05652716640398   -2.59867957992954    6.27506918503485
H        -2.45795326418104   -2.17531525763955    6.95788291033694
H        -2.90136990419101   -3.88339259700597    6.73024398874636
H         1.02944041782813   -2.26845427560776    7.98394602216520
H         1.80368171054727   -3.81680675860451    7.59766171288265
H         0.51002216377531   -3.77616048706034    8.78703031323543
105
 energy: -153.026888996528 gnorm: 0.037902286732 xtb: 6.4.1 (1a32961)
N        -0.95361597124059   -2.09258686754473   -0.26090951502333
C        -2.22871679041739   -1.68350613073358   -0.36784446693521
C        -3.12949003989888   -2.35369761113088   -1.20330395545439
C        -2.70808390537392   -3.45349572940863   -1.91935560794129
C        -1.38920621471508   -3.87332458128382   -1.78425046963690
C        -0.55837419702927   -3.15881401559870   -0.94772270537058
H         0.47396554861702   -3.44288801011226   -0.80615423029022
H        -1.01919025692160   -4.73371826273352   -2.31694058281789
H        -4.14884101216969   -2.01955833275885   -1.29861614847212
C        -2.59629891046670   -0.51377578444405    0.42813722638847
N        -1.60717788618684    0.06384511711039    1.13822662594788
C        -1.89198480193474    1.12790664691774    1.88189015725732
C        -3.15563104859270    1.67622342184350    1.97425484714785
C        -4.18677502434675    1.09213666443587    1.24846380320154
C        -3.90047048525816   -0.00806517770246    0.46813818353332
H        -4.68943219771506   -0.47432488016724   -0.09725886398942
H        -3.33195710763965    2.53454825664974    2.60177193316587
H        -1.05358108320871    1.55186900515916    2.41049494184375
Ir        0.42150000000000   -0.81650000000000    0.91330000000000
H         0.87260000000000   -2.23030000000000    1.54050000000000
B         0.49331302400998    0.43399216652878   -0.76932328854152
O         0.15488938717186   -0.02579889746162   -2.03342748748204
C         0.00582650753799    1.09371418002780   -2.92442213331339
C         0.49054585998640    0.73837679056991   -4.32623223137917
H         1.50568807907815    0.35775973711391   -4.30510806910953
H         0.44645669870967    1.61671357476128   -4.96524605497242
H        -0.15216900621378   -0.03139162006697   -4.74535423388381
C        -1.49632777248344    1.40623761765914   -2.97064022249861
H        -1.71580699078498    2.21527733017254   -3.66084391491848
H        -2.02583849502577    0.51162302574344   -3.29150260017166
H        -1.84570144454300    1.66488508027775   -1.97326226634896
C         0.82464900082821    2.20600465424030   -2.20004740211325
O         0.75899433540692    1.78329832650217   -0.82741058077183
C         2.30473135420780    2.19464585121436   -2.59714357358785
H         2.70606939426077    1.19721849478628   -2.43982494016838
H         2.44323831224759    2.50836664126023   -3.62789104029583
H         2.84655867309707    2.87437140708159   -1.94422274231489
C         0.27079052557830    3.62066635951213   -2.33648384198411
H        -0.72843167933492    3.69577188620869   -1.92101698431335
H         0.91567129911976    4.30307805669755   -1.78950772977049
H         0.25393499295957    3.91631364229809   -3.38215364694122
B         1.56592737712502    0.62516417449247    1.86284749386103
O         2.92182709082179    0.57625355184528    2.12518434269891
C         3.36157618740823    1.88833345750103    2.51212704845519
C         4.52946675143238    1.78869259347481    3.48572584900821
H         4.28034515121908    1.15597045808225    4.33049277736538
H         5.38213097728766    1.35178110157460    2.97341480252780
H         4.80260610382625    2.77845564514132    3.84004349207717
C         3.80253423620106    2.58566326322296    1.22130256270393
H         4.20088761241283    3.57719884473133    1.41344166763178
H         4.56564168654560    1.97645523002025    0.74469210803444
H         2.95309778293203    2.63260622823505    0.54432042091275
C         2.05336542387033    2.50580453152496    3.09112816338005
O         1.04213391886835    1.80326501059539    2.35032595325959
C         1.89640360874392    4.00767178138544    2.88816050968056
H         1.86345493302688    4.24917793876363    1.83182696156124
H         0.96388499554092    4.33337323189412    3.34062086992018
H         2.72050426623004    4.53531449558211    3.35962883815969
C         1.84138705803245    2.14960911122716    4.56738568232027
H         1.94411728641007    1.07519681167496    4.69912386174533
H         2.54525730614083    2.67469422718475    5.20516769608010
H         0.82903292081366    2.42624142869980    4.85208238220481
B         2.27820000000001   -1.33090000000000    0.17410000000000
O         2.90265619718610   -2.54874846252372    0.40175651825237
C         4.25813217845926   -2.48192634954614   -0.07680326609621
C         5.11340420133730   -2.06046458292985    1.12203334584394
H         4.75225798189599   -1.10298268616011    1.48927927739718
H         4.98249994795897   -2.79460232225095    1.91258724652455
H         6.16540966232110   -2.00192990125541    0.86095667734344
C         4.71097086888160   -3.84406833139438   -0.58920335627698
H         4.74278720816170   -4.54208126632757    0.24230318842127
H         5.70469981254226   -3.76387003416879   -1.02046823168482
H         4.02513740191888   -4.23320523114629   -1.33340292247241
C         4.16163294882123   -1.36139345675701   -1.15576177786242
O         3.06158155316346   -0.57368875044590   -0.67036520188230
C         5.40612567328329   -0.49446877219472   -1.30888578748258
H         6.25469655699039   -1.10759530560086   -1.59862659536539
H         5.22932177465461    0.24947827116297   -2.08051764849353
H         5.63016503738482    0.02255610505109   -0.38309933399109
C         3.73967152043477   -1.90438590204857   -2.52752734937421
H         2.84864875027229   -2.51712842611271   -2.41836983664064
H         3.48643982547312   -1.06470320715103   -3.16988503600215
H         4.53611795770397   -2.47724973487533   -2.99197892290626
H        -3.38978471085422   -3.97867026188664   -2.57003755959135
H        -5.18990389380394    1.48784749666099    1.29290305921126
C         0.23590000000002   -1.68140000000001    2.96030000000000
C        -1.00673250011994   -2.10494091745183    3.40647161418175
C         1.28786910086779   -1.72901492001635    3.89131916259006
C        -1.22623692655074   -2.57961352445741    4.70398361924404
H        -1.87467030672081   -2.09173865485527    2.76338163200125
C         1.10519973017168   -2.24234909705204    5.14962255455977
H         2.27003319831930   -1.40586615055178    3.58420068496748
C        -0.13553218210667   -2.74813030558137    5.58081429200111
O        -2.53810695533066   -2.81290779376539    4.98310544293699
H         1.95785154976877   -2.33470060041396    5.80283689237212
C        -0.15149571406379   -3.61117574780316    6.76866517156911
C        -3.00381910420963   -2.87394449484161    6.31459435984218
O        -0.88556432578507   -4.58731298857104    6.85590348689975
C         0.85749940017699   -3.32487502032013    7.85705675206706
H        -4.05713117718965   -2.59781343033681    6.26974432284252
H        -2.46047332319993   -2.17313560143407    6.95524107723353
H        -2.90230642477381   -3.88139874033879    6.72787180704121
H         1.02348023945487   -2.26006478795958    7.98379360475864
H         1.79934316176420   -3.80667294002592    7.59984777872296
H         0.50388699969943   -3.76732930901076    8.78557721927930
105
 energy: -153.027405428498 gnorm: 0.037402295440 xtb: 6.4.1 (1a32961)
N        -0.94449225420365   -2.08977037072391   -0.27161488674132
C        -2.22031094772189   -1.68058393284011   -0.37271385665215
C        -3.12653481929667   -2.35060806787619   -1.20346574008140
C        -2.71107043822915   -3.45106258993872   -1.92080210932153
C        -1.39049355609253   -3.87125130883024   -1.79222577344277
C        -0.55498864893910   -3.15558476683551   -0.96091073362608
H         0.47736048034602   -3.44355921348475   -0.82484766224926
H        -1.02490320836627   -4.73279557985527   -2.32516276573359
H        -4.14573691416745   -2.01466862782881   -1.29271060137963
C        -2.58586562828951   -0.51403333085204    0.42341068690174
N        -1.59724684593659    0.06389129112737    1.13434848820748
C        -1.88503762014898    1.12721637990712    1.87703171799090
C        -3.14951795546787    1.67274528878468    1.97189918253924
C        -4.18123833063566    1.08649284362493    1.24620463444286
C        -3.89158711731942   -0.01067944727753    0.46406472818370
H        -4.67827783247139   -0.47802152519817   -0.10327947853703
H        -3.32738654588425    2.52875192402160    2.60109666649288
H        -1.04955928184576    1.55339127130930    2.40903874537535
Ir        0.42150000000000   -0.81650000000000    0.91330000000000
H         0.87260000000000   -2.23030000000000    1.54050000000000
B         0.47778732533468    0.44763775572358   -0.75118800936342
O         0.13304730691800   -0.01753332784517   -2.01120479494618
C        -0.00308026214595    1.09413017684219   -2.90867533939136
C         0.48925502473743    0.72849500113570   -4.30597221620513
H         1.50189102244122    0.34194747975728   -4.27811124468816
H         0.45272067526046    1.60640253003321   -4.94548345633251
H        -0.15640035665414   -0.03853672009044   -4.72522447894338
C        -1.50396520205173    1.41491369842337   -2.97089634529524
H        -1.70891234361109    2.22200014865455   -3.66730471201207
H        -2.03460300921241    0.52180421846438   -3.29347108444939
H        -1.86149679451259    1.68005557431559   -1.97825732857677
C         0.81681577281137    2.20830220988319   -2.18794800329179
O         0.75879396456849    1.79185217583201   -0.81614285751576
C         2.29555064688144    2.19819040915044   -2.59335363850266
H         2.69902055428199    1.20268780948016   -2.42980492047392
H         2.42570215324608    2.50413343108885   -3.62715531138895
H         2.83833924936038    2.88493150987618   -1.94881498666121
C         0.26188525751742    3.62274758498496   -2.33136661219625
H        -0.73526364849275    3.70167158553111   -1.91200609575396
H         0.91036887437483    4.30917989467100   -1.79386085433775
H         0.24057711035408    3.90666756460471   -3.37997775944935
B         1.56691876658957    0.62860863234799    1.86663617504018
O         2.92258180604522    0.58248661878317    2.11534344720197
C         3.36147092446553    1.88977074007542    2.51344663682018
C         4.52833041469273    1.78666628008654    3.48938327586535
H         4.28035151922160    1.14806851470127    4.32989845237793
H         5.38320841685506    1.35656555221188    2.97519453347488
H         4.79526659367131    2.77595530705534    3.84903574699690
C         3.80644080588840    2.59749892548596    1.22870912725859
H         4.20127787369098    3.58813530735101    1.43004046465216
H         4.57286452905202    1.99299961776222    0.75154712241856
H         2.95866872779277    2.64606187450779    0.55011512885639
C         2.05365451075080    2.50575397892034    3.09506938682955
O         1.04118545470470    1.79813464293116    2.36393307983954
C         1.89533432690954    4.00788379847337    2.88884790987887
H         1.85470488457565    4.24744758395055    1.83235944592446
H         0.96690293421712    4.33515442945151    3.34832120943238
H         2.72444522078932    4.53355600474717    3.35314055386165
C         1.85078575382197    2.15682519217977    4.57533787181203
H         1.95585217567597    1.08323954408115    4.70990449868989
H         2.55840373836452    2.68646568930483    5.20451219765557
H         0.83984922367567    2.43368642881350    4.86400558548234
B         2.27820000000001   -1.33090000000000    0.17409999999999
O         2.90397819090680   -2.54260497436204    0.41156376033390
C         4.25372042302217   -2.48140691424315   -0.07548832142246
C         5.11830829808094   -2.06132537256177    1.11821010828098
H         4.75877746684773   -1.10394570510830    1.48686953803540
H         4.99100992922851   -2.79586621594716    1.90869344535841
H         6.16784758512780   -2.00376662200851    0.84925503616224
C         4.70212638059768   -3.84554978909500   -0.58902252280309
H         4.73724274264773   -4.54196710302320    0.24345928028822
H         5.69369605276198   -3.76339189916044   -1.02402125620631
H         4.01324644807373   -4.23509528709728   -1.33004213269780
C         4.15805453793930   -1.36252791183577   -1.15625959682134
O         3.05279966381408   -0.57889470683406   -0.67978070034509
C         5.40260132816059   -0.49383446852109   -1.30429198042299
H         6.25101655811183   -1.11038210295611   -1.58639751024509
H         5.23000346720921    0.24637612068816   -2.08025891450562
H         5.62149806842895    0.02649365055599   -0.37929511032718
C         3.74857069312415   -1.90908861496664   -2.53133564049057
H         2.85798577878374   -2.52297848637320   -2.42777850596058
H         3.50058950805330   -1.07070863728664   -3.17727824922746
H         4.55125250616334   -2.48087147877449   -2.98539044924671
H        -3.39665529976268   -3.97582130449051   -2.56740576556292
H        -5.18537175722696    1.47862518626415    1.29237747203435
C         0.23590000000003   -1.68140000000002    2.96030000000000
C        -1.00639874652172   -2.10518804000705    3.40538981271021
C         1.28765944202835   -1.72588737552866    3.89315582048594
C        -1.22719575433229   -2.57802752993641    4.70329646495189
H        -1.87354815829586   -2.09400782949481    2.76113803016626
C         1.10343419202427   -2.23642807540485    5.15148969394774
H         2.26920832156903   -1.40179277915583    3.58538982316825
C        -0.13765265286915   -2.74384316057914    5.58217390131702
O        -2.53885549299927   -2.81170311672627    4.98093119667831
H         1.95467695360879   -2.32639539699770    5.80708662736387
C        -0.15452941395874   -3.60441106232999    6.76962909773548
C        -3.00657583727974   -2.87192321608703    6.31127348505176
O        -0.88792732044473   -4.58151585462881    6.85825654301706
C         0.85264855569133   -3.31530025840134    7.85957389421201
H        -4.05995387357202   -2.59667970772456    6.26452147402462
H        -2.46464023822502   -2.17029916579716    6.95244246945092
H        -2.90461235437020   -3.87891761506428    6.72592450648832
H         1.01604346611087   -2.24987204251245    7.98509527801838
H         1.79563841343388   -3.79563784327812    7.60436819614051
H         0.49749120669494   -3.75706774435998    8.78779566030904
105
 energy: -153.027982004336 gnorm: 0.037922223596 xtb: 6.4.1 (1a32961)
N        -0.93188079433502   -2.08982950141208   -0.28552721492623
C        -2.20902412832167   -1.67917227338584   -0.37943956363269
C        -3.12147043899440   -2.34808066759785   -1.20597292441372
C        -2.71333779542509   -3.44915301508849   -1.92607269843696
C        -1.39039750846339   -3.86951879759329   -1.80745832587616
C        -0.54813112529673   -3.15394884384799   -0.98149482554829
H         0.48590386485317   -3.44368595692114   -0.85714986604904
H        -1.03010989566441   -4.73154092874710   -2.34354565450116
H        -4.14082929717955   -2.00961057103800   -1.28689765804289
C        -2.57211246918286   -0.51547758668933    0.41857823504716
N        -1.58418689984623    0.06068868014670    1.13463024656160
C        -1.87465397749491    1.12543432988967    1.87619804644150
C        -3.14006038072166    1.66906034957829    1.97098571618074
C        -4.17209749747388    1.08150501643508    1.24374663018377
C        -3.87867202450882   -0.01168806271552    0.45809082702777
H        -4.66254053718978   -0.47923998869055   -0.11337486069752
H        -3.31955580189449    2.52331888437157    2.60203114989378
H        -1.04169587506658    1.55603137899230    2.40971133496426
Ir        0.42150000000001   -0.81649999999999    0.91330000000000
H         0.87260000000000   -2.23030000000000    1.54050000000000
B         0.47549822487077    0.46482151140867   -0.72775670290453
O         0.09921537535920   -0.00362036618925   -1.97798987124711