11
 energy: -24.444224077591 gnorm: 0.045571884672 xtb: 6.4.1 (1a32961)
C        -1.20696000000000   -0.69094000000000   -0.02023000000000
C         0.00895000000000   -1.36533000000000    0.01600000000000
C         1.17616000000000   -0.61835000000000    0.06558000000000
F         2.34568000000000   -1.27195000000000    0.10381000000000
N         1.21585000000000    0.72709000000000    0.07840000000000
C         0.02210000000000    1.34676000000000    0.04073000000000
C        -1.20389000000000    0.69983000000000   -0.00694000000000
Cl        0.10492000000000    3.06013000000000    0.05175000000000
H        -2.14275000000000   -1.24138000000000   -0.05919000000000
H         0.05906000000000   -2.44770000000000    0.00621000000000
H        -2.13149000000000    1.26062000000000   -0.03391000000000
11
 energy: -24.446104882168 gnorm: 0.017815403976 xtb: 6.4.1 (1a32961)
C        -1.20612933403453   -0.69221814793334   -0.01937177818962
C         0.00358497103897   -1.36957680476307    0.01645672253862
C         1.16017043588627   -0.61144455793577    0.06448227697316
F         2.34285322883537   -1.23882723166251    0.10321028768840
N         1.19763658790348    0.71198473149143    0.07669599572260
C         0.02591504552030    1.33563356882826    0.03867539957066
C        -1.20155881230001    0.69529146081454   -0.00824809558352
Cl        0.11842853726512    3.04904428086384    0.05610739110292
H        -2.13697613255165   -1.23728196933233   -0.05798121283003
H         0.06155562443120   -2.44691298118179    0.00773129190609
H        -2.11785015199452    1.26308765081072   -0.03554827889926
11
 energy: -24.446406137403 gnorm: 0.003366328781 xtb: 6.4.1 (1a32961)
C        -1.20463139159061   -0.69266045320378   -0.01976295053805
C         0.00087645573915   -1.37740813901802    0.01639002091966
C         1.15219438019331   -0.61037197877682    0.06362214242408
F         2.34692524590931   -1.21885305780854    0.10229048724324
N         1.18647129981734    0.70140938889925    0.07644222650622
C         0.02846749516162    1.33277623850993    0.04030069107560
C        -1.20158340590764    0.69479039018606   -0.00838357144991
Cl        0.12443331420242    3.04822523506266    0.05675410995587
H        -2.13513142195283   -1.23386401790454   -0.05743204863728
H         0.06189517630509   -2.45235972951723    0.00890547977443
H        -2.11228714787715    1.26709612357102   -0.03691658727385
11
 energy: -24.446424279056 gnorm: 0.001564483476 xtb: 6.4.1 (1a32961)
C        -1.20337929200969   -0.69219162080167   -0.01935613815653
C         0.00087981948382   -1.37996100789939    0.01685765727351
C         1.15203573800618   -0.61194003800640    0.06385104492315
F         2.34943770628147   -1.21762864527571    0.10200491483991
N         1.18554000382700    0.70029199584217    0.07598334964457
C         0.02868932091144    1.33431418470689    0.03899690621402
C        -1.20176648177757    0.69537998886128   -0.00904703202763
Cl        0.12358699621770    3.05073835617473    0.05825839199526
H        -2.13497376277691   -1.23268465914981   -0.05741412716444
H         0.06043949653832   -2.45482862301732    0.00929776129825
H        -2.11285954470177    1.26729006856524   -0.03722272884008
11
 energy: -24.446426754851 gnorm: 0.000933909951 xtb: 6.4.1 (1a32961)
C        -1.20180948892499   -0.69143772298653   -0.01966314717996
C         0.00112424551638   -1.38211508115475    0.01648611718413
C         1.15203166550353   -0.61360363881281    0.06322263489133
F         2.35208790195692   -1.21651657371140    0.10194586551875
N         1.18496681888083    0.69950868547491    0.07647535027915
C         0.02890285956997    1.33578673166160    0.04090587254703
C        -1.20186153802525    0.69576225266161   -0.00833202173378
Cl        0.12290125353665    3.05322403710989    0.05689713642911
H        -2.13475406540944   -1.23127734329561   -0.05759091537563
H         0.05798873511937   -2.45699118200266    0.00940172377622
H        -2.11394838772398    1.26643983505574   -0.03753861633634
11
 energy: -24.446428155113 gnorm: 0.000322478351 xtb: 6.4.1 (1a32961)
C        -1.20218876144079   -0.69155328318680   -0.01935646758225
C         0.00117348909123   -1.38136433813173    0.01695753506045
C         1.15199131149906   -0.61315635059676    0.06396090531089
F         2.35143490134971   -1.21661081508082    0.10190334019064
N         1.18520434639497    0.69981109421697    0.07595317421133
C         0.02897425319731    1.33526974774544    0.03890498659703
C        -1.20177886095016    0.69559383028656   -0.00914181008642
Cl        0.12323316625637    3.05241050622919    0.05841832824991
H        -2.13476092184038   -1.23163012210868   -0.05741913814244
H         0.05818484153378   -2.45627179449803    0.00932776163738
H        -2.11383776509110    1.26628152512466   -0.03729861544651
11
 energy: -24.446428264968 gnorm: 0.000220557488 xtb: 6.4.1 (1a32961)
C        -1.20237775130341   -0.69162124669667   -0.01943229464558
C         0.00122958626442   -1.38110056156201    0.01666512573561
C         1.15200350042603   -0.61299135406869    0.06350947153766
F         2.35118078448599   -1.21661040495513    0.10209695310047
N         1.18523464186487    0.69990454594324    0.07619888960003
C         0.02893395879225    1.33505128332816    0.03986277386898
C        -1.20179849679708    0.69556122037752   -0.00868355664757
Cl        0.12341199862414    3.05210248905720    0.05759652740045
H        -2.13472819009756   -1.23183076756989   -0.05751486993319
H         0.05828413898483   -2.45602965949043    0.00925182745817
H        -2.11374417124448    1.26634445563671   -0.03734084747503
