      -----------------------------------------------------------      
     |                   =====================                   |     
     |                           x T B                           |     
     |                   =====================                   |     
     |                         S. Grimme                         |     
     |          Mulliken Center for Theoretical Chemistry        |     
     |                    University of Bonn                     |     
      -----------------------------------------------------------      

   * xtb version 6.4.1 (1a32961) compiled by 'knkr256@seskscpg007.prim.scp' on 2021-10-19

   xtb is free software: you can redistribute it and/or modify it under
   the terms of the GNU Lesser General Public License as published by
   the Free Software Foundation, either version 3 of the License, or
   (at your option) any later version.
   
   xtb is distributed in the hope that it will be useful,
   but WITHOUT ANY WARRANTY; without even the implied warranty of
   MERCHANTABILITY or FITNESS FOR A PARTICULAR PURPOSE.  See the
   GNU Lesser General Public License for more details.
   
   Cite this work as:
   * C. Bannwarth, E. Caldeweyher, S. Ehlert, A. Hansen, P. Pracht,
     J. Seibert, S. Spicher, S. Grimme, WIREs Comput. Mol. Sci., 2020, 11,
     e01493. DOI: 10.1002/wcms.1493
   
   for GFN2-xTB:
   * C. Bannwarth, S. Ehlert and S. Grimme., J. Chem. Theory Comput., 2019,
     15, 1652-1671. DOI: 10.1021/acs.jctc.8b01176
   for GFN1-xTB:
   * S. Grimme, C. Bannwarth, P. Shushkov, J. Chem. Theory Comput., 2017,
     13, 1989-2009. DOI: 10.1021/acs.jctc.7b00118
   for GFN0-xTB:
   * P. Pracht, E. Caldeweyher, S. Ehlert, S. Grimme, ChemRxiv, 2019, preprint.
     DOI: 10.26434/chemrxiv.8326202.v1
   for GFN-FF:
   * S. Spicher and S. Grimme, Angew. Chem. Int. Ed., 2020, 59, 15665-15673.
     DOI: 10.1002/anie.202004239
   
   for ALPB and GBSA implicit solvation:
   * S. Ehlert, M. Stahn, S. Spicher, S. Grimme, J. Chem. Theory Comput.,
     2021, 17, 4250-4261. DOI: 10.1021/acs.jctc.1c00471
   
   for DFT-D4:
   * E. Caldeweyher, C. Bannwarth and S. Grimme, J. Chem. Phys., 2017,
     147, 034112. DOI: 10.1063/1.4993215
   * E. Caldeweyher, S. Ehlert, A. Hansen, H. Neugebauer, S. Spicher,
     C. Bannwarth and S. Grimme, J. Chem. Phys., 2019, 150, 154122.
     DOI: 10.1063/1.5090222
   * E. Caldeweyher, J.-M. Mewes, S. Ehlert and S. Grimme, Phys. Chem. Chem. Phys.
     2020, 22, 8499-8512. DOI: 10.1039/D0CP00502A
   
   for sTDA-xTB:
   * S. Grimme and C. Bannwarth, J. Chem. Phys., 2016, 145, 054103.
     DOI: 10.1063/1.4959605
   
   in the mass-spec context:
   * V. Asgeirsson, C. Bauer and S. Grimme, Chem. Sci., 2017, 8, 4879.
     DOI: 10.1039/c7sc00601b
   * J. Koopman and S. Grimme, ACS Omega 2019, 4, 12, 15120-15133.
     DOI: 10.1021/acsomega.9b02011
   
   for metadynamics refer to:
   * S. Grimme, J. Chem. Theory Comput., 2019, 155, 2847-2862
     DOI: 10.1021/acs.jctc.9b00143
   
   for SPH calculations refer to:
   * S. Spicher and S. Grimme, J. Chem. Theory Comput., 2021, 17, 1701-1714
     DOI: 10.1021/acs.jctc.0c01306
   
   with help from (in alphabetical order)
   P. Atkinson, C. Bannwarth, F. Bohle, G. Brandenburg, E. Caldeweyher
   M. Checinski, S. Dohm, S. Ehlert, S. Ehrlich, I. Gerasimov, J. Koopman
   C. Lavigne, S. Lehtola, F. März, M. Müller, F. Musil, H. Neugebauer
   J. Pisarek, C. Plett, P. Pracht, J. Seibert, P. Shushkov, S. Spicher
   M. Stahn, M. Steiner, T. Strunk, J. Stückrath, T. Rose, and J. Unsleber
   
 * started run on 2022/01/14 at 13:50:49.691     

           -------------------------------------------------
          |                Calculation Setup                |
           -------------------------------------------------

          program call               : xtb xtbopt.xyz --sp --alpb thf -P 6
          hostname                   : seskscpg007.prim.scp
          coordinate file            : xtbopt.xyz
          omp threads                :                     6
          number of atoms            :                    96
          number of electrons        :                   258
          charge                     :                     0
          spin                       :                   0.0
          first test random number   :      0.87101263973679

   ID    Z sym.   atoms
    1    7 N      1, 11
    2    6 C      2-6, 10, 12-15, 23, 24, 28, 32, 34, 38, 44, 45, 49, 53, 55,
                  59, 65, 66, 70, 74, 76, 80, 86-88, 91, 93
    3    1 H      7-9, 16-18, 20, 25-27, 29-31, 35-37, 39-41, 46-48, 50-52,
                  56-58, 60-62, 67-69, 71-73, 77-79, 81-85, 92, 94-96
    4   77 Ir     19
    5    5 B      21, 42, 63
    6    8 O      22, 33, 43, 54, 64, 75
    7   16 S      89
    8   17 Cl     90

molecular fragmentation (1/2 indicates fragments):
111111111111111111111111111111111111111111111111111111111111111111111111
111111111111122222222222
# atoms in fragment 1/2:    85    11
 fragment masses (1/2) :      730.32      131.60
CMA distance (Bohr)    :   8.809
constraining FC (au)   :  0.0500

           -------------------------------------------------
          |                 G F N 2 - x T B                 |
           -------------------------------------------------

        Reference                      10.1021/acs.jctc.8b01176
      * Hamiltonian:
        H0-scaling (s, p, d)           1.850000    2.230000    2.230000
        zeta-weighting                 0.500000
      * Dispersion:
        s8                             2.700000
        a1                             0.520000
        a2                             5.000000
        s9                             5.000000
      * Repulsion:
        kExp                           1.500000    1.000000
        rExp                           1.000000
      * Coulomb:
        alpha                          2.000000
        third order                    shell-resolved
        anisotropic                    true
        a3                             3.000000
        a5                             4.000000
        cn-shift                       1.200000
        cn-exp                         4.000000
        max-rad                        5.000000

      * Solvation model:               ALPB
        Solvent                        thf
        Parameter file                 internal GFN2-xTB/ALPB
        Dielectric constant                7.6000E+00
        Reference state                gsolv [1 M gas/solution]
        Free energy shift                  5.3248E-03 Eh       3.3414E+00 kcal/mol
        Temperature                        2.9815E+02 K
        Density                            8.8300E-01 kg/L
        Solvent mass                       7.2106E+01 g/mol
        Interaction kernel             P16
        Born radius scaling (c1)           1.7311E+00
        Born radii integrator          GBOBC
        Born offset                        0.0000E+00 a0       0.0000E+00 AA
        H-bond correction              true
        Ion screening                  false
        Surface tension                    1.0000E-05 Eh       1.5569E+01 dyn/cm
        Grid points                               230 per atom
q/qsh data taken from xtbrestart
CAMM data taken from xtbrestart

          ...................................................
          :                      SETUP                      :
          :.................................................:
          :  # basis functions                 255          :
          :  # atomic orbitals                 252          :
          :  # shells                          146          :
          :  # electrons                       258          :
          :  max. iterations                   250          :
          :  Hamiltonian                  GFN2-xTB          :
          :  restarted?                       true          :
          :  GBSA solvation                   true          :
          :  PC potential                    false          :
          :  electronic temp.          300.0000000     K    :
          :  accuracy                    1.0000000          :
          :  -> integral cutoff          0.2500000E+02      :
          :  -> integral neglect         0.1000000E-07      :
          :  -> SCF convergence          0.1000000E-05 Eh   :
          :  -> wf. convergence          0.1000000E-03 e    :
          :  Broyden damping             0.4000000          :
          ...................................................

 iter      E             dE          RMSdq      gap      omega  full diag
   1   -143.3156623 -0.143316E+03  0.352E-05    0.93       0.0  T
   2   -143.3156623 -0.116529E-11  0.288E-05    0.93     354.1  T
   3   -143.3156623  0.136424E-11  0.248E-05    0.93     412.3  T

   *** convergence criteria satisfied after 3 iterations ***

         #    Occupation            Energy/Eh            Energy/eV
      -------------------------------------------------------------
         1        2.0000           -1.0531716             -28.6583
       ...           ...                  ...                  ...
       123        2.0000           -0.3660381              -9.9604
       124        2.0000           -0.3519457              -9.5769
       125        2.0000           -0.3346706              -9.1069
       126        2.0000           -0.3267888              -8.8924
       127        2.0000           -0.3244730              -8.8294
       128        2.0000           -0.3157772              -8.5927
       129        2.0000           -0.3123736              -8.5001 (HOMO)
       130                         -0.2781712              -7.5694 (LUMO)
       131                         -0.2501388              -6.8066
       132                         -0.2477511              -6.7417
       133                         -0.2308010              -6.2804
       134                         -0.2114147              -5.7529
       ...                                ...                  ...
       252                          3.8035607             103.5002
      -------------------------------------------------------------
                  HL-Gap            0.0342025 Eh            0.9307 eV
             Fermi-level           -0.2952594 Eh           -8.0344 eV

 SCC (total)                   0 d,  0 h,  0 min,  0.086 sec
 SCC setup                      ...        0 min,  0.003 sec (  3.501%)
 Dispersion                     ...        0 min,  0.003 sec (  3.239%)
 classical contributions        ...        0 min,  0.000 sec (  0.192%)
 integral evaluation            ...        0 min,  0.011 sec ( 12.883%)
 iterations                     ...        0 min,  0.036 sec ( 41.646%)
 molecular gradient             ...        0 min,  0.033 sec ( 37.770%)
 printout                       ...        0 min,  0.001 sec (  0.690%)

         :::::::::::::::::::::::::::::::::::::::::::::::::::::
         ::                     SUMMARY                     ::
         :::::::::::::::::::::::::::::::::::::::::::::::::::::
         :: total energy            -141.592727441058 Eh    ::
         :: total w/o Gsasa/hb      -141.553035967331 Eh    ::
         :: gradient norm              0.032588986738 Eh/a0 ::
         :: HOMO-LUMO gap              0.930696689068 eV    ::
         ::.................................................::
         :: SCC energy              -143.315662287360 Eh    ::
         :: -> isotropic ES            0.239962360363 Eh    ::
         :: -> anisotropic ES          0.007058134679 Eh    ::
         :: -> anisotropic XC          0.043418054025 Eh    ::
         :: -> dispersion             -0.138439155248 Eh    ::
         :: -> Gsolv                  -0.050127218226 Eh    ::
         ::    -> Gelec               -0.010435744499 Eh    ::
         ::    -> Gsasa               -0.042287051839 Eh    ::
         ::    -> Ghb                 -0.002729237332 Eh    ::
         ::    -> Gshift               0.005324815444 Eh    ::
         :: repulsion energy           1.714619141581 Eh    ::
         :: add. restraining           0.000000000000 Eh    ::
         :: total charge               0.000000000847 e     ::
         :::::::::::::::::::::::::::::::::::::::::::::::::::::

           -------------------------------------------------
          |                Property Printout                |
           -------------------------------------------------

    * Orbital Energies and Occupations

         #    Occupation            Energy/Eh            Energy/eV
      -------------------------------------------------------------
         1        2.0000           -1.0531716             -28.6583
       ...           ...                  ...                  ...
       117        2.0000           -0.4001930             -10.8898
       118        2.0000           -0.3918650             -10.6632
       119        2.0000           -0.3886394             -10.5754
       120        2.0000           -0.3852886             -10.4842
       121        2.0000           -0.3842425             -10.4558
       122        2.0000           -0.3821586             -10.3991
       123        2.0000           -0.3660381              -9.9604
       124        2.0000           -0.3519457              -9.5769
       125        2.0000           -0.3346706              -9.1069
       126        2.0000           -0.3267888              -8.8924
       127        2.0000           -0.3244730              -8.8294
       128        2.0000           -0.3157772              -8.5927
       129        2.0000           -0.3123736              -8.5001 (HOMO)
       130                         -0.2781712              -7.5694 (LUMO)
       131                         -0.2501388              -6.8066
       132                         -0.2477511              -6.7417
       133                         -0.2308010              -6.2804
       134                         -0.2114147              -5.7529
       135                         -0.2062908              -5.6135
       136                         -0.1849499              -5.0327
       137                         -0.1540062              -4.1907
       138                         -0.1474042              -4.0111
       139                         -0.1427251              -3.8837
       140                         -0.1285255              -3.4974
       ...                                ...                  ...
       252                          3.8035607             103.5002
      -------------------------------------------------------------
                  HL-Gap            0.0342025 Eh            0.9307 eV
             Fermi-level           -0.2952594 Eh           -8.0344 eV

     #   Z          covCN         q      C6AA      α(0)
     1   7 N        2.561    -0.119    23.609     7.216
     2   6 C        2.956     0.080    26.221     8.399
     3   6 C        2.918    -0.042    29.041     8.837
     4   6 C        2.924    -0.021    28.542     8.761
     5   6 C        2.915    -0.043    29.061     8.840
     6   6 C        2.893     0.048    26.912     8.505
     7   1 H        0.926     0.054     2.269     2.356
     8   1 H        0.926     0.058     2.226     2.333
     9   1 H        0.926     0.046     2.367     2.406
    10   6 C        2.955     0.077    26.288     8.410
    11   7 N        2.567    -0.121    23.652     7.223
    12   6 C        2.891     0.043    27.036     8.525
    13   6 C        2.916    -0.043    29.079     8.843
    14   6 C        2.923    -0.023    28.582     8.767
    15   6 C        2.919    -0.044    29.094     8.845
    16   1 H        0.926     0.045     2.381     2.413
    17   1 H        0.926     0.054     2.271     2.356
    18   1 H        0.926     0.079     1.985     2.203
    19  77 Ir       5.966    -0.158   388.434    36.446
    20   1 H        0.977     0.104     1.741     2.062
    21   5 B        2.633     0.407    15.960     6.746
    22   8 O        1.638    -0.408    21.015     6.188
    23   6 C        3.836     0.130    18.447     6.110
    24   6 C        3.755    -0.121    22.885     6.821
    25   1 H        0.925     0.054     2.275     2.359
    26   1 H        0.925     0.046     2.373     2.409
    27   1 H        0.925     0.052     2.301     2.372
    28   6 C        3.754    -0.109    22.644     6.785
    29   1 H        0.925     0.049     2.338     2.391
    30   1 H        0.925     0.042     2.427     2.436
    31   1 H        0.925     0.027     2.630     2.536
    32   6 C        3.842     0.131    18.437     6.108
    33   8 O        1.637    -0.402    20.893     6.170
    34   6 C        3.755    -0.121    22.882     6.821
    35   1 H        0.925     0.052     2.296     2.370
    36   1 H        0.925     0.047     2.362     2.403
    37   1 H        0.925     0.050     2.319     2.382
    38   6 C        3.754    -0.120    22.861     6.818
    39   1 H        0.925     0.047     2.358     2.401
    40   1 H        0.925     0.054     2.271     2.357
    41   1 H        0.925     0.046     2.370     2.408
    42   5 B        2.625     0.404    16.035     6.770
    43   8 O        1.637    -0.384    20.543     6.118
    44   6 C        3.837     0.129    18.471     6.114
    45   6 C        3.755    -0.126    22.983     6.836
    46   1 H        0.925     0.055     2.255     2.348
    47   1 H        0.925     0.057     2.240     2.341
    48   1 H        0.925     0.051     2.312     2.378
    49   6 C        3.755    -0.121    22.884     6.821
    50   1 H        0.925     0.050     2.326     2.385
    51   1 H        0.925     0.046     2.365     2.405
    52   1 H        0.925     0.051     2.308     2.376
    53   6 C        3.833     0.128    18.488     6.118
    54   8 O        1.637    -0.380    20.482     6.109
    55   6 C        3.755    -0.125    22.948     6.831
    56   1 H        0.925     0.054     2.273     2.358
    57   1 H        0.925     0.055     2.258     2.350
    58   1 H        0.925     0.049     2.333     2.389
    59   6 C        3.755    -0.125    22.951     6.831
    60   1 H        0.925     0.046     2.371     2.408
    61   1 H        0.925     0.054     2.273     2.358
    62   1 H        0.925     0.051     2.305     2.374
    63   5 B        2.625     0.403    16.053     6.774
    64   8 O        1.637    -0.378    20.436     6.102
    65   6 C        3.832     0.125    18.530     6.125
    66   6 C        3.755    -0.131    23.077     6.850
    67   1 H        0.925     0.059     2.208     2.324
    68   1 H        0.925     0.055     2.260     2.351
    69   1 H        0.925     0.051     2.309     2.376
    70   6 C        3.755    -0.129    23.042     6.845
    71   1 H        0.925     0.061     2.184     2.311
    72   1 H        0.925     0.051     2.306     2.375
    73   1 H        0.925     0.052     2.298     2.370
    74   6 C        3.829     0.127    18.496     6.119
    75   8 O        1.637    -0.379    20.466     6.107
    76   6 C        3.755    -0.124    22.940     6.829
    77   1 H        0.925     0.052     2.301     2.372
    78   1 H        0.925     0.054     2.274     2.358
    79   1 H        0.925     0.055     2.253     2.347
    80   6 C        3.755    -0.122    22.891     6.822
    81   1 H        0.925     0.040     2.445     2.445
    82   1 H        0.925     0.049     2.337     2.391
    83   1 H        0.925     0.055     2.256     2.349
    84   1 H        0.926     0.054     2.269     2.356
    85   1 H        0.926     0.051     2.308     2.376
    86   6 C        2.974    -0.054    29.339     8.885
    87   6 C        2.919     0.085    26.103     8.378
    88   6 C        3.132    -0.065    29.384     8.874
    89  16 S        2.377    -0.092   144.905    20.260
    90  17 Cl       1.015    -0.207   105.685    15.728
    91   6 C        2.968     0.029    27.361     8.580
    92   1 H        0.926     0.056     2.249     2.345
    93   6 C        3.775    -0.124    22.915     6.821
    94   1 H        0.925     0.063     2.164     2.301
    95   1 H        0.925     0.070     2.085     2.258
    96   1 H        0.925     0.069     2.095     2.264

 Mol. C6AA /au·bohr⁶  :     106378.986953
 Mol. C8AA /au·bohr⁸  :    2974697.241246
 Mol. α(0) /au        :        506.519176


Wiberg/Mayer (AO) data.
largest (>0.10) Wiberg bond orders for each atom

 ---------------------------------------------------------------------------
     #   Z sym  total        # sym  WBO       # sym  WBO       # sym  WBO
 ---------------------------------------------------------------------------
     1   7 N    3.405 --     6 C    1.388     2 C    1.315    19 Ir   0.442
     2   6 C    3.979 --     3 C    1.351     1 N    1.315    10 C    1.089
     3   6 C    3.988 --     4 C    1.481     2 C    1.351     9 H    0.962
                             6 C    0.106
     4   6 C    3.985 --     3 C    1.481     5 C    1.385    84 H    0.969
     5   6 C    3.979 --     6 C    1.459     4 C    1.385     8 H    0.968
     6   6 C    3.978 --     5 C    1.459     1 N    1.388     7 H    0.957
                             3 C    0.106
     7   1 H    0.997 --     6 C    0.957
     8   1 H    0.996 --     5 C    0.968
     9   1 H    0.997 --     3 C    0.962
    10   6 C    3.978 --    15 C    1.357    11 N    1.307     2 C    1.089
    11   7 N    3.418 --    12 C    1.388    10 C    1.307    19 Ir   0.439
    12   6 C    3.972 --    13 C    1.454    11 N    1.388    18 H    0.946
                            15 C    0.105
    13   6 C    3.981 --    12 C    1.454    14 C    1.390    17 H    0.969
    14   6 C    3.982 --    15 C    1.475    13 C    1.390    85 H    0.969
    15   6 C    3.989 --    14 C    1.475    10 C    1.357    16 H    0.962
                            12 C    0.105
    16   1 H    0.997 --    15 C    0.962
    17   1 H    0.997 --    13 C    0.969
    18   1 H    0.993 --    12 C    0.946
    19  77 Ir   5.197 --    42 B    0.858    63 B    0.854    21 B    0.729
                            86 C    0.574    20 H    0.565     1 N    0.442
                            11 N    0.439
    20   1 H    0.987 --    19 Ir   0.565    86 C    0.319
    21   5 B    3.275 --    33 O    1.114    22 O    1.095    19 Ir   0.729
    22   8 O    2.193 --    21 B    1.095    23 C    0.941
    23   6 C    3.942 --    24 C    0.997    28 C    0.990    22 O    0.941
                            32 C    0.941
    24   6 C    3.994 --    23 C    0.997    26 H    0.983    27 H    0.983
                            25 H    0.983
    25   1 H    0.997 --    24 C    0.983
    26   1 H    0.997 --    24 C    0.983
    27   1 H    0.997 --    24 C    0.983
    28   6 C    3.997 --    23 C    0.990    31 H    0.985    30 H    0.984
                            29 H    0.984
    29   1 H    0.997 --    28 C    0.984
    30   1 H    0.998 --    28 C    0.984
    31   1 H    0.999 --    28 C    0.985
    32   6 C    3.939 --    38 C    0.997    34 C    0.991    23 C    0.941
                            33 O    0.938
    33   8 O    2.203 --    21 B    1.114    32 C    0.938
    34   6 C    3.994 --    32 C    0.991    36 H    0.984    37 H    0.982
                            35 H    0.981
    35   1 H    0.997 --    34 C    0.981
    36   1 H    0.997 --    34 C    0.984
    37   1 H    0.997 --    34 C    0.982
    38   6 C    3.994 --    32 C    0.997    41 H    0.984    39 H    0.983
                            40 H    0.983
    39   1 H    0.998 --    38 C    0.983
    40   1 H    0.997 --    38 C    0.983
    41   1 H    0.997 --    38 C    0.984
    42   5 B    3.336 --    43 O    1.117    54 O    1.113    19 Ir   0.858
    43   8 O    2.225 --    42 B    1.117    44 C    0.935
    44   6 C    3.936 --    45 C    0.997    49 C    0.991    53 C    0.939
                            43 O    0.935
    45   6 C    3.992 --    44 C    0.997    48 H    0.983    46 H    0.982
                            47 H    0.982
    46   1 H    0.997 --    45 C    0.982
    47   1 H    0.997 --    45 C    0.982
    48   1 H    0.996 --    45 C    0.983
    49   6 C    3.994 --    44 C    0.991    50 H    0.983    51 H    0.982
                            52 H    0.980
    50   1 H    0.997 --    49 C    0.983
    51   1 H    0.998 --    49 C    0.982
    52   1 H    0.997 --    49 C    0.980
    53   6 C    3.937 --    55 C    0.997    59 C    0.992    44 C    0.939
                            54 O    0.933
    54   8 O    2.232 --    42 B    1.113    53 C    0.933
    55   6 C    3.993 --    53 C    0.997    58 H    0.983    57 H    0.983
                            56 H    0.982
    56   1 H    0.997 --    55 C    0.982
    57   1 H    0.997 --    55 C    0.983
    58   1 H    0.996 --    55 C    0.983
    59   6 C    3.994 --    53 C    0.992    61 H    0.983    62 H    0.983
                            60 H    0.982
    60   1 H    0.998 --    59 C    0.982
    61   1 H    0.996 --    59 C    0.983
    62   1 H    0.997 --    59 C    0.983
    63   5 B    3.363 --    75 O    1.121    64 O    1.111    19 Ir   0.854
    64   8 O    2.229 --    63 B    1.111    65 C    0.937
    65   6 C    3.937 --    70 C    0.997    66 C    0.991    74 C    0.938
                            64 O    0.937
    66   6 C    3.992 --    65 C    0.991    69 H    0.983    68 H    0.982
                            67 H    0.979
    67   1 H    0.996 --    66 C    0.979
    68   1 H    0.997 --    66 C    0.982
    69   1 H    0.996 --    66 C    0.983
    70   6 C    3.992 --    65 C    0.997    72 H    0.983    73 H    0.982
                            71 H    0.982
    71   1 H    0.996 --    70 C    0.982
    72   1 H    0.996 --    70 C    0.983
    73   1 H    0.997 --    70 C    0.982
    74   6 C    3.934 --    76 C    0.996    80 C    0.991    65 C    0.938
                            75 O    0.935
    75   8 O    2.236 --    63 B    1.121    74 C    0.935
    76   6 C    3.992 --    74 C    0.996    77 H    0.983    78 H    0.982
                            79 H    0.981
    77   1 H    0.996 --    76 C    0.983
    78   1 H    0.997 --    76 C    0.982
    79   1 H    0.997 --    76 C    0.981
    80   6 C    3.995 --    74 C    0.991    81 H    0.984    82 H    0.983
                            83 H    0.983
    81   1 H    0.998 --    80 C    0.984
    82   1 H    0.997 --    80 C    0.983
    83   1 H    0.996 --    80 C    0.983
    84   1 H    0.996 --     4 C    0.969
    85   1 H    0.996 --    14 C    0.969
    86   6 C    3.937 --    87 C    1.575    88 C    1.193    19 Ir   0.574
                            20 H    0.319
    87   6 C    3.839 --    86 C    1.575    89 S    1.083    90 Cl   0.954
    88   6 C    3.983 --    91 C    1.638    86 C    1.193    92 H    0.952
    89  16 S    2.529 --    91 C    1.119    87 C    1.083
    90  17 Cl   1.099 --    87 C    0.954
    91   6 C    3.943 --    88 C    1.638    89 S    1.119    93 C    1.037
    92   1 H    0.997 --    88 C    0.952
    93   6 C    3.990 --    91 C    1.037    94 H    0.978    95 H    0.970
                            96 H    0.966
    94   1 H    0.996 --    93 C    0.978
    95   1 H    0.994 --    93 C    0.970
    96   1 H    0.994 --    93 C    0.966
 ---------------------------------------------------------------------------

Topologies differ in total number of bonds
Writing topology from bond orders to xtbtopo.mol

molecular dipole:
                 x           y           z       tot (Debye)
 q only:        1.481       0.930      -0.702
   full:        0.226       1.214      -1.614       5.165
molecular quadrupole (traceless):
                xx          xy          yy          xz          yz          zz
 q only:        7.931      -7.576      -7.964      18.101      15.328       0.032
  q+dip:       13.722      -6.360      -5.248      18.607      22.710      -8.474
   full:       12.282      -4.868      -4.719      17.424      20.048      -7.563


           -------------------------------------------------
          | TOTAL ENERGY             -141.592727441058 Eh   |
          | GRADIENT NORM               0.032588986738 Eh/α |
          | HOMO-LUMO GAP               0.930696689068 eV   |
           -------------------------------------------------

------------------------------------------------------------------------
 * finished run on 2022/01/14 at 13:50:50.553     
------------------------------------------------------------------------
 total:
 * wall-time:     0 d,  0 h,  0 min,  0.862 sec
 *  cpu-time:     0 d,  0 h,  0 min,  1.617 sec
 * ratio c/w:     1.876 speedup
 SCF:
 * wall-time:     0 d,  0 h,  0 min,  0.088 sec
 *  cpu-time:     0 d,  0 h,  0 min,  0.520 sec
 * ratio c/w:     5.914 speedup

