96
 energy: -141.576563732589 gnorm: 0.076837141551 xtb: 6.4.1 (1a32961)
N        -0.96510000000000   -2.11530000000000   -0.24090000000000
C        -2.24700000000000   -1.69840000000000   -0.36220000000000
C        -3.14040000000000   -2.36820000000000   -1.21200000000000
C        -2.70220000000000   -3.47560000000000   -1.93050000000000
C        -1.37780000000000   -3.89880000000000   -1.78760000000000
C        -0.54290000000000   -3.18670000000000   -0.93510000000000
H         0.49810000000000   -3.45630000000000   -0.78940000000000
H        -0.99570000000000   -4.76030000000000   -2.32770000000000
H        -4.16500000000000   -2.02890000000000   -1.31830000000000
C        -2.62130000000000   -0.50950000000000    0.44100000000000
N        -1.62600000000000    0.07330000000000    1.16020000000000
C        -1.89680000000000    1.15240000000000    1.91690000000000
C        -3.17230000000000    1.70330000000000    1.99650000000000
C        -4.20510000000000    1.11740000000000    1.26270000000000
C        -3.92610000000000    0.00250000000000    0.47820000000000
H        -4.71960000000000   -0.46420000000000   -0.09520000000000
H        -3.34630000000000    2.57510000000000    2.62070000000000
H        -1.04450000000000    1.57420000000000    2.43690000000000
Ir        0.42150000000000   -0.81650000000000    0.91330000000000
H         0.87260000000000   -2.23030000000000    1.54050000000000
B         0.50670000000000    0.41560000000000   -0.81540000000000
O         0.19500000000000   -0.04700000000000   -2.09150000000000
C         0.00650000000000    1.10040000000000   -2.95430000000000
C         0.49020000000000    0.74740000000000   -4.35780000000000
H         1.51610000000000    0.37380000000000   -4.33700000000000
H         0.44730000000000    1.62240000000000   -5.01670000000000
H        -0.14740000000000   -0.03390000000000   -4.78430000000000
C        -1.50120000000000    1.39560000000000   -2.96670000000000
H        -1.75370000000000    2.21460000000000   -3.64850000000000
H        -2.03200000000000    0.49450000000000   -3.28930000000000
H        -1.85170000000000    1.65210000000000   -1.96220000000000
C         0.84230000000000    2.20670000000000   -2.22040000000000
O         0.75200000000000    1.78260000000000   -0.83690000000000
C         2.32930000000000    2.18620000000000   -2.59900000000000
H         2.74130000000000    1.18500000000000   -2.45750000000000
H         2.48870000000000    2.51300000000000   -3.63180000000000
H         2.87200000000000    2.86270000000000   -1.93200000000000
C         0.28440000000000    3.62290000000000   -2.33660000000000
H        -0.72650000000000    3.69040000000000   -1.92910000000000
H         0.92130000000000    4.31480000000000   -1.77610000000000
H         0.26430000000000    3.94810000000000   -3.38320000000000
B         1.56300000000000    0.60960000000000    1.84840000000000
O         2.92780000000000    0.55230000000000    2.15020000000000
C         3.36330000000000    1.88660000000000    2.50260000000000
C         4.53140000000000    1.78590000000000    3.47740000000000
H         4.27910000000000    1.16090000000000    4.33690000000000
H         5.39390000000000    1.33790000000000    2.97340000000000
H         4.82390000000000    2.77870000000000    3.83820000000000
C         3.79700000000000    2.56850000000000    1.19670000000000
H         4.20020000000000    3.57090000000000    1.37680000000000
H         4.56740000000000    1.95560000000000    0.72110000000000
H         2.95240000000000    2.63260000000000    0.50540000000000
C         2.05040000000000    2.50090000000000    3.09320000000000
O         1.03750000000000    1.81620000000000    2.31910000000000
C         1.89100000000000    4.00450000000000    2.88650000000000
H         1.87290000000000    4.25440000000000    1.82410000000000
H         0.94940000000000    4.34260000000000    3.33170000000000
H         2.71080000000000    4.55150000000000    3.36630000000000
C         1.82470000000000    2.13200000000000    4.56520000000000
H         1.92610000000000    1.05330000000000    4.71320000000000
H         2.52610000000000    2.65280000000000    5.22540000000000
H         0.80630000000000    2.41580000000000    4.84900000000000
B         2.27820000000000   -1.33090000000000    0.17410000000000
O         2.89460000000000   -2.57740000000000    0.38450000000000
C         4.26930000000000   -2.48200000000000   -0.07210000000000
C         5.10900000000000   -2.05380000000000    1.14010000000000
H         4.76350000000000   -1.08740000000000    1.51750000000000
H         4.98050000000000   -2.79470000000000    1.93590000000000
H         6.17420000000000   -1.99290000000000    0.89300000000000
C         4.71950000000000   -3.84660000000000   -0.58470000000000
H         4.75280000000000   -4.56130000000000    0.24420000000000
H         5.72330000000000   -3.78370000000000   -1.02010000000000
H         4.03500000000000   -4.23600000000000   -1.34170000000000
C         4.16440000000000   -1.36220000000000   -1.16300000000000
O         3.08520000000000   -0.55030000000000   -0.65400000000000
C         5.40720000000000   -0.48870000000000   -1.31550000000000
H         6.27320000000000   -1.09010000000000   -1.61530000000000
H         5.23300000000000    0.26930000000000   -2.08590000000000
H         5.64270000000000    0.02650000000000   -0.38240000000000
C         3.71800000000000   -1.89830000000000   -2.53110000000000
H         2.82530000000000   -2.52160000000000   -2.42740000000000
H         3.46090000000000   -1.05250000000000   -3.17550000000000
H         4.50570000000000   -2.48290000000000   -3.01790000000000
H        -3.38500000000000   -4.00130000000000   -2.59310000000000
H        -5.21400000000000    1.52080000000000    1.29960000000000
C         0.23590000000000   -1.68140000000000    2.96030000000000
C        -0.96221252256570   -2.10968071440556    3.46448804968528
C         1.23786219018244   -1.87443775159384    3.96105106700351
S        -0.91602177771605   -2.62995891438734    5.10605937387985
Cl       -2.49644797393919   -2.31546830420090    2.70853379374587
C         0.79446935353360   -2.39092265006006    5.14361416163450
H         2.27551681838865   -1.66249794153541    3.75939982627161
C         1.55279178140470   -2.82984118840829    6.34675914741063
H         2.62188863807556   -2.81951959450369    6.13881830137145
H         1.25011266941917   -3.84411231676342    6.61429358014047
H         1.34228117872303   -2.18442590364309    7.20108505425328
96
 energy: -141.583873061116 gnorm: 0.046656118251 xtb: 6.4.1 (1a32961)
N        -0.95886735707389   -2.08931318889130   -0.26550463315363
C        -2.23362387883101   -1.67365459480887   -0.38513007443887
C        -3.13196884158459   -2.35515721257107   -1.21439590618731
C        -2.70401581869209   -3.46275091951392   -1.92298603792476
C        -1.38509158850095   -3.88231744023626   -1.78292663252839
C        -0.55425313738609   -3.16500337075997   -0.94400493064678
H         0.47874449389419   -3.44685609016527   -0.79133234359740
H        -1.00943654475409   -4.74466128358530   -2.31510408545649
H        -4.15366746507017   -2.02222111387605   -1.31502463378921
C        -2.60273929198621   -0.48575247802840    0.40273682720803
N        -1.61103668628852    0.09865549863110    1.10996167016139
C        -1.89487037689383    1.15202759648325    1.87840005784160
C        -3.16581953420725    1.69073501656943    1.97986684625352
C        -4.19508320508684    1.10784429369753    1.25099676662835
C        -3.91006642133316    0.00943038946097    0.45974459820801
H        -4.70400854982603   -0.46384048855076   -0.09767956891149
H        -3.34323100172911    2.54745384746483    2.61497985931857
H        -1.05380787135117    1.56360109531405    2.41667354660226
Ir        0.42150000000000   -0.81650000000000    0.91330000000000
H         0.87260000000000   -2.23030000000000    1.54050000000000
B         0.49860208267526    0.41856426586864   -0.79348432872899
O         0.17805802539081   -0.03748808087268   -2.06528498320836
C         0.01216433894661    1.09604359972220   -2.94382004494327
C         0.49137308275839    0.74784224107934   -4.34902484277949
H         1.51037452552016    0.37118793076378   -4.32774983818415
H         0.44647546597302    1.62374531686460   -4.99683026507294
H        -0.14732730717084   -0.02786965420921   -4.76999201313849
C        -1.49197952793074    1.39910200691464   -2.97010960963846
H        -1.73031122416436    2.21247677160249   -3.65383529120759
H        -2.02252958136168    0.50247245184848   -3.29061361498036
H        -1.83937910713478    1.65366557000162   -1.96858218891512
C         0.83374458348927    2.20535125021622   -2.21132295267272
O         0.75808075484098    1.77536421668067   -0.83471786369293
C         2.31633007908980    2.19034217041905   -2.59884993835950
H         2.72119934910299    1.19135313257325   -2.44976834678512
H         2.46766093830294    2.51258366396475   -3.62834784400794
H         2.85823297361957    2.86501582617535   -1.93707977235120
C         0.28211418834352    3.62170092624521   -2.33781499321009
H        -0.72148901184530    3.69106738979647   -1.92631909455006
H         0.92144288636285    4.30560741220051   -1.78106534549104
H         0.26484910320952    3.93466285035982   -3.38193312860680
B         1.56539719913655    0.61222726530970    1.86459921664526
O         2.92588468108341    0.56226561193987    2.14258892781110
C         3.36337436616521    1.88534366815722    2.51149563539785
C         4.53308353612615    1.78854947611076    3.48219456794676
H         4.28059767361156    1.16097343792232    4.33272856661710
H         5.38795245000035    1.34403640781547    2.97440170367944
H         4.81549880800097    2.77911544052446    3.83743613611627
C         3.79888301655215    2.57195401993761    1.21236469631952
H         4.20008125866853    3.56780205431194    1.39593902989055
H         4.56306645216685    1.96066009148968    0.73539625442640
H         2.95099294611827    2.62460972639939    0.53069068725818
C         2.05306693627054    2.50422202083034    3.09085772464255
O         1.04126624945100    1.80684187795872    2.33755466871746
C         1.89373400061880    4.00625656451876    2.88966513753987
H         1.86885166972749    4.24986067490340    1.83134002899449
H         0.95604218070153    4.33555120366649    3.33569161154003
H         2.71386081750756    4.54269577874616    3.36620096632086
C         1.83085525993093    2.13953220880758    4.56273767357562
H         1.93315863547524    1.06363758262972    4.69978401063328
H         2.53144110168117    2.66092421176226    5.21238125780818
H         0.81604603187686    2.41781408950888    4.84645727846230
B         2.27820000000000   -1.33090000000001    0.17410000000000
O         2.90080154113746   -2.56150293015966    0.39149265900671
C         4.26567524774491   -2.48365943383369   -0.07707356320215
C         5.10963569501020   -2.05906603745763    1.12919053693165
H         4.75309665188643   -1.09909034289039    1.50040556471469
H         4.97826350988341   -2.79528327675152    1.92134012288377
H         6.16734776343023   -1.99895397480914    0.87755444147864
C         4.72011594082359   -3.84587174792897   -0.58703137814226
H         4.74947911853978   -4.55050793132485    0.24274529550870
H         5.71794263086923   -3.77440314985114   -1.01900652958418
H         4.03462403521521   -4.23309535117037   -1.33603788087686
C         4.16657401312742   -1.36049659720695   -1.15716862540827
O         3.07405514326055   -0.56367526274853   -0.66137658934857
C         5.40987828459652   -0.49213524444717   -1.31422238841763
H         6.26602923115358   -1.09790940286006   -1.60990705993574
H         5.23180791646650    0.25905741083958   -2.08248379690773
H         5.63741370849068    0.02218976215415   -0.38503255682116
C         3.72970857486967   -1.89943351730099   -2.52546494347335
H         2.83749521729719   -2.51477927850121   -2.41738790001269
H         3.47267758693125   -1.05778810176901   -3.16725945408871
H         4.51969282703423   -2.47655370811145   -3.00315865805252
H        -3.38445833713559   -3.98978520272550   -2.57803111162179
H        -5.20161129453093    1.50197471522177    1.29923505210441
C         0.23589999999999   -1.68139999999999    2.96030000000000
C        -0.95802837328693   -2.11723368054372    3.46440758220712
C         1.24118326921395   -1.86813960599004    3.96268632840529
S        -0.90467420000843   -2.63768835497472    5.11702872931716
Cl       -2.49225421423105   -2.34002920865281    2.70966107124805
C         0.80785843958693   -2.38363102618041    5.14427770650354
H         2.27498220965860   -1.64983097870704    3.75980705365863
C         1.57070616978357   -2.81473096649985    6.34745457263698
H         2.63701955438117   -2.79844679050340    6.14037835920624
H         1.27522909848170   -3.82882018535359    6.61783629936614
H         1.35697162562005   -2.17083464625352    7.19999359195914
96
 energy: -141.586135864137 gnorm: 0.035765340390 xtb: 6.4.1 (1a32961)
N        -0.94913737768478   -2.07439266757765   -0.28143715096155
C        -2.21795870062394   -1.65377806450024   -0.40448097737682
C        -3.12183705781672   -2.33438511458006   -1.22668242654782
C        -2.70590403394902   -3.44677956266966   -1.92672417881529
C        -1.38901427796533   -3.86886308868597   -1.78751323535861
C        -0.55815655669981   -3.15068600978492   -0.95464843099026
H         0.47103610481941   -3.44165460026562   -0.80302146275921
H        -1.02136320807364   -4.73579679327306   -2.31116399298327
H        -4.14246939535039   -2.00329415358977   -1.31828715035280
C        -2.58500459210766   -0.47627046174675    0.38218583801888
N        -1.59820234774217    0.10257751012901    1.09218934283935
C        -1.88848497445671    1.15013325536614    1.85417113708473
C        -3.15645748662163    1.68590719398626    1.96225704636967
C        -4.18463799837841    1.10331722542196    1.23344451732893
C        -3.89274480706851    0.01532707175018    0.43762429896289
H        -4.68360230742552   -0.46085427289199   -0.11666936826789
H        -3.33826500406785    2.52848647595797    2.60970007046012
H        -1.05344301584589    1.56613203343782    2.39484988140775
Ir        0.42150000000000   -0.81650000000000    0.91330000000001
H         0.87260000000000   -2.23030000000000    1.54050000000001
B         0.50732579994644    0.42391660751158   -0.77405939164200
O         0.16274488639069   -0.02974430142817   -2.03819265645169
C         0.01115034859021    1.09272716793635   -2.92475528795127
C         0.49504543073389    0.74202130072126   -4.32805899388759
H         1.51017645120369    0.36185225981128   -4.30818763076522
H         0.44986141140785    1.62188179446578   -4.96450389048098
H        -0.14747466135937   -0.02700734379822   -4.74834400123889
C        -1.49117625178247    1.40520278925925   -2.97007073601033
H        -1.71034221913886    2.21549765504372   -3.65855704419980
H        -2.02153681830204    0.51176212883566   -3.29253958564753
H        -1.84129661941274    1.66232955958540   -1.97255617016478
C         0.82927009545975    2.20320840909766   -2.19701328699727
O         0.76719900249614    1.77427324934263   -0.82601752854323
C         2.30906487622693    2.19488801533402   -2.59537419525226
H         2.71152052510307    1.19769502630914   -2.44032491837831
H         2.44652283569927    2.51107070169829   -3.62522113215893
H         2.85018874125058    2.87364415041643   -1.94111942865789
C         0.27493089809279    3.61812985558804   -2.33074686877335
H        -0.72455500625090    3.69321620399552   -1.91626971705763
H         0.91929257196412    4.30015147941046   -1.78303057535048
H         0.25876444065736    3.91472948242814   -3.37597114379140
B         1.57075407811788    0.61617134424413    1.87477047507571
O         2.92537091992833    0.56998288592288    2.13754647165523
C         3.36285653264355    1.88431057953618    2.51858937588926
C         4.53088639104697    1.78829502116204    3.49199637929057
H         4.28137941069573    1.15683617802301    4.33721515637818
H         5.38302650888142    1.35062721206227    2.97996919188339
H         4.80300776548610    2.77866125906811    3.84434106316481
C         3.80266433991811    2.57949389614352    1.22603835932979
H         4.20005374280298    3.57135724940455    1.41729452414324
H         4.56594713102615    1.97086908240636    0.74936638348111
H         2.95315502453886    2.62588066379026    0.54920035817057
C         2.05375039730971    2.50208349562219    3.09475014202424
O         1.04448731886116    1.79635362336367    2.35488080382668
C         1.89560442838579    4.00377841734529    2.89116645929975
H         1.86362744262678    4.24559308441821    1.83499847021664
H         0.96255447276667    4.32897772886835    3.34254570864307
H         2.71876552126554    4.53145001285346    3.36363682349312
C         1.84045580043642    2.14602167174460    4.57068348657929
H         1.94520458251003    1.07171393333668    4.70114704999132
H         2.54258602862074    2.67107615340852    5.20971577904948
H         0.82743659908599    2.42090074999600    4.85438918370153
B         2.27819999999999   -1.33090000000002    0.17410000000001
O         2.90277588040334   -2.54872365701400    0.40082016866416
C         4.25864915236224   -2.48228213352338   -0.07678433937939
C         5.11292196429378   -2.06227693621853    1.12320226831657
H         4.75041631082134   -1.10592795520578    1.49174213857763
H         4.98200478643106   -2.79777990514827    1.91217022897269
H         6.16476417586894   -2.00275471586852    0.86304557936065
C         4.71193308537023   -3.84408664428432   -0.58967885664207
H         4.74294104857528   -4.54216588579016    0.24142031762532
H         5.70576575535861   -3.76330234560940   -1.01985837971330
H         4.02665082297908   -4.23244799496294   -1.33442265030907
C         4.16299268537897   -1.36065226267037   -1.15427301962039
O         3.06226929512865   -0.57359682978204   -0.66898540017454
C         5.40777863506443   -0.49402980770486   -1.30645353458612
H         6.25583915262272   -1.10727821934918   -1.59631961403452
H         5.23139385492050    0.25049045928588   -2.07734159559964
H         5.63130381268616    0.02201167887936   -0.38023187851211
C         3.74138067695211   -1.90263388578446   -2.52663864267254
H         2.84998320327905   -2.51474676779894   -2.41807292069429
H         3.48849071612217   -1.06268221323786   -3.16854139811358
H         4.53766251965623   -2.47520216523203   -2.99104254373660
H        -3.39086914110936   -3.97952822442876   -2.56776516801314
H        -5.19264271411447    1.48472502464784    1.29403526061628
C         0.23589999999997   -1.68139999999996    2.96030000000001
C        -0.95315956282712   -2.12299621878342    3.45945884884030
C         1.24512133593147   -1.85703522136061    3.96397201516142
S        -0.89325804743522   -2.64957743016041    5.12279213253466
Cl       -2.48414773856809   -2.33157490667420    2.69134663571904
C         0.82207624404894   -2.37330507935396    5.14457616173502
H         2.27537626491263   -1.62742407823930    3.75931912104156
C         1.59533929071044   -2.78767863775174    6.34796977552009
H         2.66002735090842   -2.75708295581551    6.13875361501769
H         1.31574722525518   -3.80406086218850    6.62445121336323
H         1.37562636645001   -2.14280088758158    7.19736034853337
96
 energy: -141.587116897874 gnorm: 0.034619459088 xtb: 6.4.1 (1a32961)
N        -0.93738852757493   -2.06285958064905   -0.30075514586270
C        -2.20421577060407   -1.63632877305008   -0.42665847944296
C        -3.11401427309960   -2.31764184791902   -1.24279481138677
C        -2.70716152469004   -3.43747673758168   -1.93529275669277
C        -1.39010620738700   -3.86363211306440   -1.79717644883363
C        -0.55434399043860   -3.14320352281389   -0.97054592579687
H         0.47333882429886   -3.44140753888735   -0.82030767335567
H        -1.02887492069478   -4.73640075243824   -2.31465289660022
H        -4.13236379408024   -1.98008078066950   -1.33405308505897
C        -2.56778307496966   -0.45763575164620    0.35365532897451
N        -1.58288930735571    0.11930257784714    1.06833333732605
C        -1.87892163612385    1.16080274275390    1.83547930965105
C        -3.15007633929754    1.68774896385629    1.95246496541258
C        -4.17763880717591    1.10416949096570    1.22080262748780
C        -3.87841028755134    0.02777656394778    0.41265196010424
H        -4.66613526491167   -0.44972002857611   -0.14452936723332
H        -3.33554552452075    2.52258707018234    2.60764273889733
H        -1.04743256812752    1.58078402011848    2.37911363019791
Ir        0.42149999999999   -0.81650000000001    0.91330000000001
H         0.87260000000000   -2.23029999999999    1.54050000000001
B         0.49822886036786    0.43480032241460   -0.75698443535074
O         0.14594165639474   -0.02281267028995   -2.01692223517859
C         0.00662422741999    1.09280932082544   -2.90799737848536
C         0.49807476647031    0.73435571920654   -4.30756329246088
H         1.51085079091532    0.34851392455556   -4.28256580955571
H         0.45959327965150    1.61543613107585   -4.94210065846238
H        -0.14769932009594   -0.03099839161589   -4.72927349403484
C        -1.49454197534904    1.41355779062114   -2.96952257562916
H        -1.69831461395627    2.22279945662114   -3.66340228928343
H        -2.02583739052977    0.52205116403925   -3.29527647722819
H        -1.85323300409450    1.67600091961518   -1.97658347108926
C         0.82586918516556    2.20442852614167   -2.18278496790081
O         0.77292172996712    1.77987280849629   -0.81358650825323
C         2.30406006523993    2.19917715582946   -2.59072627514591
H         2.70924700530716    1.20389896141630   -2.43098050611127
H         2.43158530983499    2.50896500066602   -3.62335547513539
H         2.84583655359024    2.88462110479268   -1.94424509012864
C         0.26898941860638    3.61879386618891   -2.32098375014893
H        -0.72848049057574    3.69688257546895   -1.90250818407776
H         0.91694433582900    4.30437459914539   -1.78217014584784
H         0.24831572702009    3.90418676240112   -3.36894896370388
B         1.57332422691076    0.61491717413720    1.88533454063919
O         2.92743090533072    0.57250554096312    2.13360192408673
C         3.36323774070544    1.88256754834556    2.52468714564229
C         4.53006340713971    1.78545743489536    3.50111020440133
H         4.28241813932073    1.14908646772990    4.34303414847408
H         5.38490226121210    1.35496683900757    2.98769202614452
H         4.79468113331536    2.77620709755063    3.85731183990255
C         3.80692035618802    2.58745728063467    1.23772340583986
H         4.20021960044693    3.57873208011574    1.43765144580428
H         4.57383811966601    1.98342035604293    0.76116861682568
H         2.95885918646603    2.63420161163404    0.55944289449958
C         2.05423019921514    2.49875022050697    3.10261251925253
O         1.04481211652117    1.78718837445740    2.37228872388542
C         1.89445137709010    4.00056323029249    2.89444426579892
H         1.85523271747405    4.24028882397585    1.83800860809469
H         0.96516901345794    4.32701292205973    3.35244181225997
H         2.72229831167163    4.52632126239053    3.36016114025546
C         1.84968979845008    2.15076605209442    4.58282023795657
H         1.95779206510753    1.07737992008754    4.71597437861771
H         2.55480299619988    2.68136427280113    5.21327627350835
H         0.83752064486713    2.42474957707370    4.86947562167083
B         2.27819999999998   -1.33090000000004    0.17410000000001
O         2.90360256004023   -2.54240932438213    0.41068835255332
C         4.25370630146997   -2.48170540163420   -0.07483549817434
C         5.11742805457036   -2.06446027080510    1.12056858668613
H         4.75593280751852   -1.10884539336088    1.49154248420200
H         4.99022592649880   -2.80155255309259    1.90838642719876
H         6.16668318728292   -2.00521736674115    0.85234737160658
C         4.70258752591483   -3.84521479075699   -0.59002090437906
H         4.73680505425662   -4.54211183681596    0.24169955274639
H         5.69448345420134   -3.76142563796880   -1.02316316934904
H         4.01489917127191   -4.23373298230945   -1.33233731501583
C         4.15978635197251   -1.36121522978734   -1.15357153233103
O         3.05365560648041   -0.57847298499984   -0.67748660646168
C         5.40513370646037   -0.49311360744969   -1.29886014046008
H         6.25253562319520   -1.11055669916134   -1.58084062967500
H         5.23390809254286    0.24790737002490   -2.07406375053100
H         5.62343751814479    0.02570255296931   -0.37307786890486
C         3.75217574041284   -1.90599806799888   -2.53014370871534
H         2.86103898871571   -2.51911435464026   -2.42796266399673
H         3.50546372743478   -1.06687899257297   -3.17541921089767
H         4.55530412298603   -2.47736823902967   -2.98320081211917
H        -3.39746723100338   -3.97285566858120   -2.56802685660515
H        -5.18831030468032    1.47652678526073    1.28799106056155
C         0.23589999999994   -1.68139999999993    2.96030000000001
C        -0.94629804299107   -2.13186398850035    3.46206924471843
C         1.25139064325775   -1.84277730727155    3.96189894396565
S        -0.87650679783851   -2.65756925821350    5.13275265912829
Cl       -2.47491997226658   -2.35063709417327    2.69279427343341
C         0.83933739685198   -2.35938523863964    5.14485980370273
H         2.27816629371423   -1.60046525491820    3.75287486660604
C         1.62388955493503   -2.75350981071926    6.34818814713801
H         2.68739416689360   -2.70541382423235    6.13386737415058
H         1.36324745802387   -3.77299151946425    6.63294892172241
H         1.39690274299431   -2.10582874286590    7.19366621398094
96
 energy: -141.588066012025 gnorm: 0.034943163675 xtb: 6.4.1 (1a32961)
N        -0.92495521886718   -2.05864474056183   -0.31490803992092
C        -2.18960957777814   -1.62294196266636   -0.44679195665287
C        -3.10186078274499   -2.29722159594826   -1.26713690781908
C        -2.70452009992359   -3.42535645801437   -1.95142650286887
C        -1.38872341794358   -3.85907869845341   -1.81120236221233
C        -0.54764236936162   -3.14011003009352   -0.98734006544617
H         0.47956344546903   -3.44378921786933   -0.84162274817387
H        -1.03404167338308   -4.73736120696706   -2.32432695390885
H        -4.11619598482355   -1.94804046235105   -1.36374272036817
C        -2.55169536256025   -0.44690821194436    0.33506218070969
N        -1.56922465689586    0.12469242834380    1.06053970595589
C        -1.86763379283925    1.17068531646316    1.82255878986587
C        -3.14061241240331    1.69345487344724    1.93955625034748
C        -4.16685509089637    1.11046906415625    1.20273964857630
C        -3.86158710365633    0.04327593458879    0.38527482250341
H        -4.64357956351751   -0.42711750849421   -0.18624368369809
H        -3.32956885770139    2.52188009299548    2.60151215491796
H        -1.03832071352148    1.59722176925480    2.36538915974644
Ir        0.42149999999999   -0.81650000000001    0.91330000000002
H         0.87259999999999   -2.23029999999999    1.54050000000002
B         0.50350780964923    0.44661776099656   -0.73899098881095
O         0.12598191439673   -0.01246610686518   -1.99124625942179
C        -0.00112043695909    1.09613242833639   -2.88674474102324
C         0.49916042453234    0.72385553495784   -4.28063003928337
H         1.50810960130390    0.32755209201896   -4.24347605084414
H         0.47518257315992    1.60237010068667   -4.92024014080102
H        -0.15066586136518   -0.03816174659029   -4.70329571942888
C        -1.50035762579943    1.42751352080572   -2.96706381198630
H        -1.68784371798341    2.23536321057190   -3.66766871662651
H        -2.03382509225553    0.53839102192797   -3.29676868702099
H        -1.87215060772667    1.69774285001647   -1.98053406200980
C         0.82220633048008    2.21011861265497   -2.16599758401784
O         0.78222243000157    1.78879549741506   -0.79792043290697
C         2.29839057893246    2.20846780566100   -2.58489671687369
H         2.70964983138812    1.21640503777851   -2.41828322596637
H         2.41547902366462    2.50850630772487   -3.62185833668268
H         2.84133094044090    2.90377806772908   -1.94926553836514
C         0.26018715788212    3.62314766714173   -2.30657291256819
H        -0.73398116163193    3.70198045710921   -1.87935356190214
H         0.91196405601370    4.31529168383586   -1.77978561649816
H         0.22820412609653    3.89920898273816   -3.35727116111973
B         1.57669858045915    0.61336292626216    1.89349230816518
O         2.93194805462946    0.57558554372782    2.12794909429226
C         3.36570109870990    1.88136212145836    2.53325862232380
C         4.53073864776188    1.77972344892110    3.51308940322981
H         4.28444059868723    1.13473408800702    4.34944029390816
H         5.39109841254994    1.35954878327759    2.99910169588613
H         4.78741029789261    2.76959112860139    3.87965757274528
C         3.81465502000175    2.59937138700812    1.25417432907750
H         4.20168084744039    3.59110664343756    1.46626555272431
H         4.58873267721895    2.00342030710493    0.77794934755995
H         2.97084775234045    2.64896814010126    0.57043063049251
C         2.05598764319586    2.49394090809264    3.11632448141652
O         1.04474868622289    1.77551440057834    2.39727687996923
C         1.89113186520767    3.99535282299594    2.90147916860886
H         1.83980159899259    4.23036511491609    1.84388581180611
H         0.96703944501119    4.32470578219316    3.36933043041978
H         2.72513058726227    4.52378288783185    3.35479855329661