111
 energy: -163.142429386224 gnorm: 0.076915957552 xtb: 6.4.1 (1a32961)
N        -0.96510000000000   -2.11530000000000   -0.24090000000000
C        -2.24700000000001   -1.69840000000001   -0.36219999999999
C        -3.14040000000002   -2.36820000000000   -1.21200000000001
C        -2.70219999999998   -3.47560000000000   -1.93050000000000
C        -1.37780000000001   -3.89879999999999   -1.78760000000000
C        -0.54289999999999   -3.18670000000000   -0.93510000000000
H         0.49810000000000   -3.45630000000000   -0.78940000000000
H        -0.99570000000000   -4.76030000000000   -2.32770000000000
H        -4.16500000000001   -2.02890000000000   -1.31830000000000
C        -2.62130000000001   -0.50950000000000    0.44100000000000
N        -1.62600000000000    0.07330000000000    1.16020000000000
C        -1.89680000000000    1.15240000000000    1.91690000000000
C        -3.17230000000000    1.70330000000000    1.99650000000001
C        -4.20510000000001    1.11740000000001    1.26270000000000
C        -3.92610000000000    0.00250000000001    0.47820000000000
H        -4.71960000000000   -0.46420000000000   -0.09520000000000
H        -3.34630000000000    2.57510000000000    2.62070000000000
H        -1.04450000000000    1.57420000000000    2.43690000000000
Ir        0.42150000000000   -0.81650000000000    0.91330000000000
H         0.87260000000000   -2.23030000000000    1.54050000000000
B         0.50670000000000    0.41560000000000   -0.81540000000000
O         0.19500000000000   -0.04700000000000   -2.09150000000000
C         0.00650000000000    1.10040000000000   -2.95430000000000
C         0.49019999999998    0.74740000000000   -4.35780000000000
H         1.51610000000000    0.37380000000000   -4.33700000000000
H         0.44730000000000    1.62240000000000   -5.01670000000000
H        -0.14740000000000   -0.03390000000000   -4.78430000000001
C        -1.50119999999998    1.39560000000001   -2.96670000000000
H        -1.75370000000000    2.21460000000000   -3.64850000000000
H        -2.03200000000000    0.49449999999999   -3.28930000000000
H        -1.85170000000000    1.65210000000000   -1.96220000000001
C         0.84230000000000    2.20670000000000   -2.22040000000001
O         0.75200000000000    1.78260000000000   -0.83690000000000
C         2.32930000000000    2.18620000000000   -2.59900000000000
H         2.74130000000000    1.18500000000000   -2.45750000000000
H         2.48870000000000    2.51300000000000   -3.63180000000000
H         2.87200000000000    2.86270000000000   -1.93200000000000
C         0.28440000000001    3.62290000000000   -2.33660000000000
H        -0.72650000000001    3.69040000000000   -1.92910000000000
H         0.92130000000000    4.31480000000000   -1.77610000000000
H         0.26430000000000    3.94810000000000   -3.38320000000000
B         1.56300000000001    0.60960000000000    1.84840000000000
O         2.92780000000000    0.55230000000000    2.15020000000001
C         3.36329999999999    1.88660000000000    2.50260000000001
C         4.53140000000001    1.78590000000000    3.47740000000003
H         4.27910000000000    1.16090000000000    4.33690000000001
H         5.39390000000000    1.33790000000000    2.97340000000000
H         4.82390000000000    2.77870000000000    3.83820000000000
C         3.79700000000000    2.56850000000000    1.19669999999997
H         4.20020000000000    3.57090000000000    1.37680000000000
H         4.56740000000000    1.95560000000000    0.72109999999999
H         2.95240000000000    2.63260000000000    0.50540000000000
C         2.05040000000001    2.50090000000000    3.09320000000000
O         1.03750000000001    1.81620000000000    2.31910000000000
C         1.89100000000000    4.00450000000000    2.88650000000000
H         1.87290000000000    4.25440000000000    1.82410000000000
H         0.94940000000001    4.34260000000000    3.33170000000000
H         2.71080000000002    4.55150000000000    3.36630000000001
C         1.82469999999997    2.13200000000000    4.56520000000001
H         1.92610000000000    1.05330000000000    4.71320000000000
H         2.52610000000001    2.65280000000000    5.22540000000001
H         0.80629999999999    2.41580000000000    4.84900000000000
B         2.27820000000000   -1.33090000000000    0.17410000000000
O         2.89460000000000   -2.57740000000000    0.38450000000000
C         4.26930000000001   -2.48200000000000   -0.07209999999998
C         5.10900000000000   -2.05380000000000    1.14009999999999
H         4.76350000000000   -1.08739999999999    1.51750000000000
H         4.98050000000000   -2.79469999999999    1.93590000000001
H         6.17420000000000   -1.99290000000000    0.89300000000000
C         4.71950000000000   -3.84660000000000   -0.58470000000000
H         4.75280000000000   -4.56130000000000    0.24420000000001
H         5.72330000000000   -3.78370000000000   -1.02010000000000
H         4.03500000000000   -4.23600000000000   -1.34170000000000
C         4.16440000000000   -1.36220000000000   -1.16300000000002
O         3.08520000000001   -0.55030000000000   -0.65400000000000
C         5.40719999999998   -0.48870000000001   -1.31550000000001
H         6.27320000000000   -1.09010000000000   -1.61529999999999
H         5.23300000000000    0.26930000000000   -2.08590000000000
H         5.64270000000000    0.02650000000000   -0.38240000000001
C         3.71800000000001   -1.89830000000000   -2.53110000000003
H         2.82530000000000   -2.52160000000000   -2.42740000000000
H         3.46090000000000   -1.05250000000000   -3.17550000000000
H         4.50570000000000   -2.48290000000000   -3.01790000000000
H        -3.38500000000000   -4.00130000000000   -2.59310000000000
H        -5.21400000000000    1.52080000000000    1.29960000000000
C         0.23590000000001   -1.68140000000000    2.96030000000001
C        -1.00517885481077   -2.16411350879392    3.37539033109203
C         1.23722701330502   -1.82574145136291    3.92357621736787
C        -1.25722600694814   -2.69055894587089    4.65063198415164
O        -2.18290225688742   -2.22045434573655    2.68448226640374
C         1.01820172859600   -2.37441543160048    5.18876714543450
H         2.24121143109282   -1.52344954230716    3.65132032041035
N        -2.58569913318012   -3.02795272394595    4.73390445005806
C        -0.23107404656389   -2.83104888729749    5.58124972181806
C        -3.08865888810761   -2.72924551978584    3.56938456318024
H         1.85509633609968   -2.47909743325087    5.86789642091199
H        -0.41008616769523   -3.29368455425002    6.54017205139187
C        -4.49601998431481   -2.78693663021278    3.21777578183367
C        -5.45497833461509   -2.87699555313962    4.23020995415195
C        -4.91860780242182   -2.66428945441665    1.89413261255753
C        -6.80063970346487   -2.76657200940444    3.92285277483746
H        -5.12119717178448   -3.00813494650839    5.25137265713451
C        -6.26693894218462   -2.54634887500683    1.60046412440989
H        -4.17904831681669   -2.65910621268504    1.10557063544704
C        -7.22519601210670   -2.56162728799986    2.61015833219716
H        -7.53521025823919   -2.81766228872537    4.71669728802954
H        -6.58166105309026   -2.42638153129496    0.57107326694489
C        -8.67799826285117   -2.35581530629357    2.30818719813869
H        -9.24085738076795   -3.27094033928081    2.49950429037752
H        -8.82516634046981   -2.06760560843478    1.26730467381480
H        -9.08637289585144   -1.57368044371280    2.95086832195401
111
 energy: -163.149354684243 gnorm: 0.046898683252 xtb: 6.4.1 (1a32961)
N        -0.95836536595509   -2.09351384390110   -0.25825765166396
C        -2.23349034606763   -1.67775435514807   -0.37641045681011
C        -3.13002014925452   -2.35346072258230   -1.21418026713641
C        -2.70346532110741   -3.46111355124302   -1.92315911326153
C        -1.38486120887258   -3.88227309225438   -1.78167961994608
C        -0.55393257630804   -3.16662863438605   -0.94137718228759
H         0.47944542906194   -3.44809210167489   -0.79104969304640
H        -1.00932413328786   -4.74369997648036   -2.31536141442376
H        -4.15015334562681   -2.01659731151946   -1.32000714095715
C        -2.60461665783832   -0.49773781930200    0.42014465588582
N        -1.61422364136383    0.08053169496565    1.13356366378313
C        -1.89586930994609    1.14247864818178    1.89137970244582
C        -3.16436241919999    1.68787140605373    1.98457032838238
C        -4.19361738080020    1.10703718475400    1.25392037515618
C        -3.90886717770199    0.00772975645392    0.46535055357188
H        -4.70079628942918   -0.45478123393885   -0.10263734906026
H        -3.34026329944723    2.54837403475242    2.61491587228724
H        -1.05350495090940    1.55890505747626    2.42350492817459
Ir        0.42150000000000   -0.81650000000000    0.91330000000000
H         0.87260000000000   -2.23030000000000    1.54050000000000
B         0.49159770791738    0.42206566199090   -0.79181139593131
O         0.17562138038994   -0.03542226347260   -2.06445956156027
C         0.01096365921954    1.09742443159633   -2.94409681911283
C         0.49032002069567    0.74837270641649   -4.34898301722665
H         1.50922349823750    0.37154224770606   -4.32739994764333
H         0.44566584594715    1.62407905565538   -4.99702716687641
H        -0.14847057811151   -0.02741473791165   -4.76962952079710
C        -1.49312485519046    1.40017426573764   -2.97004019351356
H        -1.73140722635378    2.21347956332831   -3.65378304984164
H        -2.02324878911332    0.50327180585074   -3.29033500210749
H        -1.83982843792948    1.65451030594286   -1.96823820634932
C         0.83279285341877    2.20661258373426   -2.21192426909756
O         0.75593487211406    1.77795278233027   -0.83505655977081
C         2.31538942084860    2.19073074652169   -2.59917918463759
H         2.71973053575885    1.19161872334456   -2.44960130091692
H         2.46701291856275    2.51269318676106   -3.62872847271161
H         2.85744074640422    2.86524446289079   -1.93741570529673
C         0.28149169016436    3.62294511560354   -2.33835301782475
H        -0.72186942612591    3.69205406003044   -1.92628242415022
H         0.92110121871762    4.30638602204772   -1.78141881009469
H         0.26412099120979    3.93587524486224   -3.38243256307816
B         1.56469657231269    0.61431684448305    1.86045885090828
O         2.92493158259706    0.56277549568840    2.13975707278529
C         3.36341860206535    1.88505181666572    2.51069405113665
C         4.53325115112900    1.78769117203434    3.48127382628469
H         4.28097860224059    1.15961038064148    4.33153350946088
H         5.38810376117972    1.34341139456547    2.97327133889495
H         4.81576879914442    2.77812354550972    3.83694258592800
C         3.79910010521641    2.57219169632815    1.21196311748513
H         4.20049302716329    3.56784306467502    1.39605785035815
H         4.56310051871996    1.96077643090630    0.73490284271592
H         2.95099472794890    2.62488656276874    0.53060307253152
C         2.05346129500019    2.50405919429357    3.09055129620843
O         1.04107811480778    1.80770379152573    2.33696581940405
C         1.89450641528472    4.00619448474518    2.88970723175670
H         1.86931380828870    4.24979465986558    1.83141050524087
H         0.95698760385634    4.33535197381282    3.33615790637496
H         2.71488252218915    4.54227691855080    3.36616916979450
C         1.83192476886309    2.13959781299839    4.56264937472217
H         1.93308503149337    1.06374018892488    4.70053039883381
H         2.53291798528034    2.66093244263581    5.21195297038380
H         0.81734625521609    2.41799476094310    4.84693202554155
B         2.27820000000000   -1.33090000000000    0.17410000000000
O         2.90044091771205   -2.56170977193977    0.39079069687522
C         4.26534783617590   -2.48379106173785   -0.07773496057729
C         5.10972533937568   -2.05926048836254    1.12818054854704
H         4.75334557760149   -1.09928247440560    1.49938414230209
H         4.97812614333414   -2.79495586927808    1.92075469640647
H         6.16740047744868   -1.99932367543773    0.87619121717894
C         4.71972172946377   -3.84590137034462   -0.58802264414231
H         4.74917793125136   -4.55049808010181    0.24179767313202
H         5.71748385279831   -3.77433379480714   -1.02013063687777
H         4.03403975661487   -4.23308535259578   -1.33690398711940
C         4.16631918798363   -1.36061855754899   -1.15782102750273
O         3.07384909218098   -0.56391149386559   -0.66184311324856
C         5.40952904349123   -0.49223936098129   -1.31516001353918
H         6.26560745615637   -1.09804674536957   -1.61096138908015
H         5.23116950881590    0.25896193547105   -2.08333310094868
H         5.63712140502731    0.02198699982442   -0.38595859930695
C         3.72918318818090   -1.89932179191384   -2.52610225160103
H         2.83698314871071   -2.51458674760615   -2.41768392870879
H         3.47203805429957   -1.05754285345289   -3.16764422582305
H         4.51910055667920   -2.47644554392985   -3.00388628801516
H        -3.38402278647940   -3.98721991575187   -2.57885389137580
H        -5.19875978478280    1.50464561580986    1.29783286791055
C         0.23590000000000   -1.68140000000000    2.96030000000001
C        -1.00662076476420   -2.16040845522879    3.37607469012464
C         1.23365247559716   -1.82001426221246    3.92756604784656
C        -1.25910478495894   -2.68334412650151    4.65813880539064
O        -2.18723544436825   -2.22003212682344    2.68791900220343
C         1.01210540312789   -2.36330879203462    5.19338052944771
H         2.23545110054911   -1.51737260341347    3.65776690784264
N        -2.58891475618819   -3.01940787321165    4.73785601021281
C        -0.23244071496786   -2.81870851443937    5.58633122270724
C        -3.08958713418212   -2.72501397033101    3.57517682256334
H         1.84728744453238   -2.46384536546426    5.87229632501662
H        -0.40973364478856   -3.27695383169326    6.54558199576397
C        -4.49484450102872   -2.78486499731052    3.22274834793802
C        -5.45462164797581   -2.87302472150037    4.23321628505827
C        -4.91658835287134   -2.66634273506628    1.89998856082216
C        -6.79615456938355   -2.76566474788258    3.92537835077211
H        -5.12269193534902   -3.00134732271277    5.25200408324620
C        -6.26217861547041   -2.55130435656237    1.60550784494139
H        -4.17851297285604   -2.66178883379198    1.11364290326962
C        -7.22035651753836   -2.56524338105868    2.61302031199824
H        -7.53002091119735   -2.81607251478015    4.71712246659858
H        -6.57595421378481   -2.43468027518412    0.57719942901761
C        -8.67320683927643   -2.36230552461695    2.30959627769635
H        -9.23473721875377   -3.27609611541913    2.50134104982741
H        -8.82062812953391   -2.07667883252492    1.27060335465734
H        -9.08346247318722   -1.58147119430588    2.94911161134317
111
 energy: -163.151383040540 gnorm: 0.037161928846 xtb: 6.4.1 (1a32961)
N        -0.94754752309822   -2.07886113692720   -0.27194416629262
C        -2.21713969353947   -1.65741184876815   -0.39222893643470
C        -3.11923511095910   -2.33128937108205   -1.22486625767024
C        -2.70544091532847   -3.44349409787998   -1.92618530238588
C        -1.38924521311162   -3.86953623460970   -1.78391851805852
C        -0.55754905291364   -3.15347751377605   -0.94999129993074
H         0.47248316123910   -3.44395362896176   -0.80239053289357
H        -1.02205236044936   -4.73563561600700   -2.30953002777857
H        -4.13621626909437   -1.99098396879832   -1.32757535834410
C        -2.58463639746506   -0.48573037695465    0.40011996761360
N        -1.59950964526939    0.08337359702276    1.12048790527774
C        -1.88874885578154    1.13576958356636    1.87795527327509
C        -3.15396878280391    1.67928964808156    1.97705939774046
C        -4.18153032751358    1.10306630206037    1.24126074157940
C        -3.88931788138827    0.01739110093807    0.44386385730503
H        -4.67781347168068   -0.44217147145874   -0.12644104647439
H        -3.33301011098643    2.52780395301639    2.61754916956868
H        -1.05308284609145    1.55391474100174    2.41638827773819
Ir        0.42150000000000   -0.81650000000000    0.91330000000000
H         0.87260000000000   -2.23030000000000    1.54050000000000
B         0.49868710447120    0.43026347790270   -0.77142151386309
O         0.15733007481313   -0.02565454620924   -2.03643090590365
C         0.00745977161235    1.09589102765774   -2.92476146605222
C         0.49157528937240    0.74302849428952   -4.32741951661780
H         1.50667506440562    0.36245038061209   -4.30691179117805
H         0.44718697077678    1.62233957683650   -4.96490811338145
H        -0.15118088230046   -0.02624553689911   -4.74723265680622
C        -1.49476808978017    1.40865610759533   -2.96984206740705
H        -1.71429216655707    2.21889655281051   -3.65845532082393
H        -2.02463947385947    0.51470424671072   -3.29187041930949
H        -1.84391024658017    1.66566507383587   -1.97188962659537
C         0.82647216383129    2.20645307079462   -2.19826876263425
O         0.76181821952182    1.78024712984351   -0.82655804155739
C         2.30648429663433    2.19607946878920   -2.59573242562941
H         2.70798553304324    1.19853939229537   -2.43974600370303
H         2.44476329377573    2.51138127662892   -3.62592405078498
H         2.84817972894764    2.87474325276100   -1.94168457029891
C         0.27278480824690    3.62150133615155   -2.33239469609556
H        -0.72640025552464    3.69648496792909   -1.91687424199371
H         0.91776817181769    4.30305913024001   -1.78458053126491
H         0.25618314832399    3.91833914903440   -3.37764737288323
B         1.56855174985776    0.61943014232012    1.86867913227543
O         2.92358998124529    0.57079933122676    2.13171017143454
C         3.36301014560698    1.88384879885304    2.51594021473773
C         4.53127493607032    1.78555987757571    3.48901178321220
H         4.28219875248755    1.15288993277113    4.33374548752679
H         5.38353147098922    1.34845570802199    2.97634069854129
H         4.80391083530818    2.77554279916179    3.84276001268710
C         3.80320750828895    2.58048007293636    1.22419305895754
H         4.20123544806324    3.57205304288095    1.41647854953519
H         4.56621579068719    1.97163670498398    0.74711637899956
H         2.95352059312858    2.62771436565378    0.54754827093274
C         2.05491420065158    2.50202046184865    3.09409897226485
O         1.04410569923934    1.79883823340992    2.35353991676452
C         1.89780453729789    4.00400928649158    2.89105821792461
H         1.86516438433420    4.24600647469494    1.83483444534533
H         0.96517335970500    4.32947607842749    3.34345142908301
H         2.72170472060864    4.53113989096267    3.36319468627706
C         1.84287864161557    2.14622418486666    4.57040493072506
H         1.94573306912221    1.07185346039236    4.70258395990775
H         2.54635417238853    2.67095623419706    5.20860900295138
H         0.83035899443253    2.42201799891994    4.85554825142682
B         2.27820000000000   -1.33090000000000    0.17410000000000
O         2.90207380261150   -2.54958395338589    0.39937618738166
C         4.25795332942498   -2.48258363545337   -0.07856218068403
C         5.11312088680728   -2.06253831025078    1.12077772148858
H         4.75161806821486   -1.10574627851779    1.48935318110015
H         4.98208770459447   -2.79719587319005    1.91072577857430
H         6.16502606950709   -2.00363317054558    0.85982537694863
C         4.71068870912815   -3.84439716416897   -0.59215190094973
H         4.74227851819582   -4.54278496042559    0.23892076559866
H         5.70440054299027   -3.76370195691298   -1.02305177325693
H         4.02485291347402   -4.23267111191007   -1.33672130422348
C         4.16172278146997   -1.36094321706996   -1.15624931483875
O         3.06170185568276   -0.57354846037431   -0.67000495929381
C         5.40645172569187   -0.49428728727547   -1.30892213564610
H         6.25458953553017   -1.10751980746450   -1.59928066807678
H         5.22963532807876    0.25041247568117   -2.07973219165143
H         5.63058682341200    0.02169269839311   -0.38266485792539
C         3.73932895767229   -1.90255371841389   -2.52857739823303
H         2.84794558734244   -2.51476990934459   -2.41960545773092
H         3.48622378271630   -1.06222927536783   -3.17007616823541
H         4.53538455304241   -2.47531604774914   -2.99353706129874
H        -3.38997417074263   -3.97276474090080   -2.57063727900188
H        -5.18694273791327    1.49151914118253    1.29378725729926
C         0.23589999999998   -1.68139999999999    2.96030000000001
C        -1.00749976347367   -2.15415306765524    3.37880310513116
C         1.23103306155221   -1.80935490119805    3.93175916207997
C        -1.26131292898741   -2.66852782010522    4.66841085799539
O        -2.19007380508956   -2.21724328265771    2.69225867682766
C         1.00708140572536   -2.34148062796994    5.20140361527655
H         2.23156994666508   -1.50684510492019    3.66281786965836
N        -2.59179505175723   -3.00261856451394    4.74655814703222
C        -0.23517106886263   -2.79498981182733    5.59640481704639
C        -3.08956047430596   -2.71608827469603    3.58335477996953
H         1.84084252649441   -2.43319769181960    5.88207245076343
H        -0.41228726641539   -3.24475939204295    6.55907675972506
C        -4.49273935703735   -2.77994463942282    3.22986451332216
C        -5.45335374593805   -2.86610845729786    4.23961096891041
C        -4.91255973885173   -2.66770125172136    1.90673566508661
C        -6.79278818550720   -2.76420158905605    3.93031985163645
H        -5.12206510521278   -2.98856485544517    5.25791042335916
C        -6.25712692165859   -2.55882095177698    1.61051141345764
H        -4.17408832883032   -2.66206157256378    1.12203973663698
C        -7.21596744960380   -2.57155613822942    2.61653042178812
H        -7.52707940406294   -2.81279176021593    4.72053004387469
H        -6.56975031072347   -2.44790431187493    0.58211305866095
C        -8.66879520182249   -2.37454388108925    2.31094657786943
H        -9.22637203861028   -3.28942947311897    2.50499756997598
H        -8.81499858023165   -2.09299445836955    1.27179448168734
H        -9.08142838691174   -1.59390710212118    2.94764022602077
111
 energy: -163.152299802467 gnorm: 0.036544147109 xtb: 6.4.1 (1a32961)
N        -0.93587383772332   -2.06958638764141   -0.28636723151548
C        -2.20310608908996   -1.64108519023825   -0.40888478975589
C        -3.11015104894393   -2.31160278369440   -1.23976330811291
C        -2.70660963571791   -3.43067418221905   -1.93432394755201
C        -1.39139578316792   -3.86362023189903   -1.79132538359589
C        -0.55474136611186   -3.14720855353474   -0.96280535900911
H         0.47359796264940   -3.44579192037620   -0.81733158952339
H        -1.03138690591966   -4.73536278391015   -2.31134955719471
H        -4.12382644210712   -1.96245164767795   -1.34355828910823
C        -2.56771981442835   -0.47296219204303    0.38260725547124
N        -1.58522603696694    0.08961539321458    1.11207592389110
C        -1.87926838226276    1.13663571622678    1.87372064697631
C        -3.14528326223518    1.67668659712094    1.97663038090380
C        -4.17132491104301    1.10507290421281    1.23238289113296
C        -3.87304092183044    0.03030963390632    0.42380675913883
H        -4.65739403532848   -0.42407194411208   -0.15602524134979
H        -3.32746095722684    2.51656234232763    2.62636764552734
H        -1.04804658851504    1.55479420699801    2.41944908852214
Ir        0.42150000000000   -0.81650000000000    0.91330000000000
H         0.87260000000000   -2.23030000000000    1.54050000000000
B         0.48500607583292    0.44449421410649   -0.75200755682517
O         0.13595974747706   -0.01586683235361   -2.01285451629577
C        -0.00005647609402    1.09779259215680   -2.90718328870202
C         0.49159038080616    0.73595400811093   -4.30580680065793
H         1.50395505483186    0.34916957710470   -4.27950179088403
H         0.45451175461690    1.61588700847980   -4.94202225129113
H        -0.15456381669619   -0.02962789772902   -4.72644000278082
C        -1.50091207910556    1.41959927614435   -2.96916315300859
H        -1.70442389226761    2.22854715828828   -3.66337536688597
H        -2.03197149443649    0.52780172150605   -3.29422120007102
H        -1.85852696509615    1.68216691040740   -1.97593526377144
C         0.82004979643414    2.20964004210527   -2.18378870276764
O         0.76456932532328    1.78872874396675   -0.81366285814568
C         2.29838568144659    2.20120193890594   -2.59093433762214
H         2.70183268848644    1.20551045073638   -2.42932550133269
H         2.42705115949740    2.50922715086038   -3.62399141258139
H         2.84118288280206    2.88654492852347   -1.94524641185084
C         0.26511615163484    3.62452749660576   -2.32386889686712
H        -0.73165597107939    3.70325229963455   -1.90395656844855
H         0.91417745604490    4.30945728984171   -1.78558133486858
H         0.24387331199710    3.90941607081468   -3.37192354045762
B         1.57042085501781    0.61919357743578    1.87859964154520
O         2.92533466140129    0.57426310197134    2.12474494571645
C         3.36395933248609    1.88207632539413    2.52046575448878
C         4.53146705787084    1.78091372896595    3.49569956914157
H         4.28414666085152    1.14216291791349    4.33603166547736
H         5.38582743004524    1.35129586596046    2.98071994144759
H         4.79690600322676    2.77059924198327    3.85442684704630
C         3.80801750832768    2.58937372232978    1.23488228834438
H         4.20236234495667    3.57987045748870    1.43645973995542
H         4.57411918474475    1.98522743091936    0.75721634354784
H         2.95960678024214    2.63754558725109    0.55723776575501
C         2.05667840367166    2.49922932561277    3.10117369728042
O         1.04469823855077    1.79039310863377    2.37161979955796
C         1.89841867371095    4.00146144647035    2.89424294599754
H         1.85766151071098    4.24120336762176    1.83792438691574
H         0.97012186406042    4.32833336299508    3.35390419009935
H         2.72757880382630    4.52605535925760    3.35892327074277
C         1.85431890895406    2.15169269730876    4.58186287698165
H         1.95974187520938    1.07826147490255    4.71673359995147
H         2.56176877829382    2.68145216881995    5.21047442223882
H         0.84330670773679    2.42745244233694    4.87105712649725
B         2.27820000000000   -1.33090000000000    0.17410000000001
O         2.90315384434811   -2.54301466892340    0.40882826796817
C         4.25263025613340   -2.48240529729486   -0.07833810704221
C         5.11800330114101   -2.06508781394861    1.11570018303442
H         4.75784709338230   -1.10888395379628    1.48635698536439
H         4.99056765118263   -2.80072215966471    1.90483506179353
H         6.16704268924732   -2.00708628703965    0.84618785342485
C         4.70065255028769   -3.84595302534029   -0.59426308075758
H         4.73568639631766   -4.54292742609984    0.23739830489804
H         5.69197194366299   -3.76233827070381   -1.02876146961377
H         4.01175600489282   -4.23412850509201   -1.33568880309606
C         4.15768363922052   -1.36169967809100   -1.15684065530389
O         3.05218745597428   -0.57902580334784   -0.67960549448477
C         5.40290318927862   -0.49372728494670   -1.30361703467090
H         6.25008260846683   -1.11113122789476   -1.58638781988828
H         5.23069708533847    0.24735577092332   -2.07851948011706
H         5.62195597061291    0.02498705186197   -0.37800895416786
C         3.74862820676608   -1.90609746933891   -2.53313802718610
H         2.85751604056668   -2.51904692371919   -2.43015605205195
H         3.50143777247438   -1.06669335729356   -3.17777851753776
H         4.55123210878604   -2.47749130083114   -2.98704025366604
H        -3.39592909005466   -3.95998904724871   -2.57291781229647
H        -5.17795662212080    1.48848661307158    1.28807378868418
C         0.23589999999996   -1.68139999999999    2.96030000000002
C        -1.00752177582524   -2.14726716885718    3.38295361064579
C         1.22975051668302   -1.79664440014708    3.93508073008491
C        -1.26309430892301   -2.64849660834087    4.67920339836009
O        -2.19021808449162   -2.21524332728330    2.69642223436765
C         1.00390962411792   -2.31295568064018    5.21095077670319
H         2.23010059148595   -1.49543940208109    3.66505219425750
N        -2.59380248767822   -2.98025455300604    4.75846099098066
C        -0.23834437816468   -2.76311984592680    5.60947877604835
C        -3.08916935587055   -2.70445135882201    3.59224492129426
H         1.83639469105019   -2.39360164079630    5.89466808901071
H        -0.41656176798314   -3.20086769760387    6.57779447412077
C        -4.49095322867289   -2.77258455076650    3.23752749847017
C        -5.45208915195691   -2.85671713578482    4.24717758644077
C        -4.90833350977597   -2.66745582170518    1.91323248317057
C        -6.79109262200912   -2.76193731128742    3.93576379297822
H        -5.12067883489294   -2.97206008403700    5.26628030680790
C        -6.25302517799011   -2.56674674348662    1.61481479521887
H        -4.16828348112493   -2.65950782619010    1.12969711892242
C        -7.21285945831457   -2.57902331980725    2.61981278923436
H        -7.52649790300794   -2.80863177072164    4.72497073699629
H        -6.56458426804625   -2.46273663904021    0.58551454327816
C        -8.66607271786233   -2.39069995251776    2.31161666360713
H        -9.21855670301954   -3.30793330308220    2.50895668407408
H        -8.81163639443209   -2.11426262815958    1.27112848309144