      -----------------------------------------------------------      
     |                   =====================                   |     
     |                           x T B                           |     
     |                   =====================                   |     
     |                         S. Grimme                         |     
     |          Mulliken Center for Theoretical Chemistry        |     
     |                    University of Bonn                     |     
      -----------------------------------------------------------      

   * xtb version 6.4.1 (1a32961) compiled by 'knkr256@seskscpg007.prim.scp' on 2021-10-19

   xtb is free software: you can redistribute it and/or modify it under
   the terms of the GNU Lesser General Public License as published by
   the Free Software Foundation, either version 3 of the License, or
   (at your option) any later version.
   
   xtb is distributed in the hope that it will be useful,
   but WITHOUT ANY WARRANTY; without even the implied warranty of
   MERCHANTABILITY or FITNESS FOR A PARTICULAR PURPOSE.  See the
   GNU Lesser General Public License for more details.
   
   Cite this work as:
   * C. Bannwarth, E. Caldeweyher, S. Ehlert, A. Hansen, P. Pracht,
     J. Seibert, S. Spicher, S. Grimme, WIREs Comput. Mol. Sci., 2020, 11,
     e01493. DOI: 10.1002/wcms.1493
   
   for GFN2-xTB:
   * C. Bannwarth, S. Ehlert and S. Grimme., J. Chem. Theory Comput., 2019,
     15, 1652-1671. DOI: 10.1021/acs.jctc.8b01176
   for GFN1-xTB:
   * S. Grimme, C. Bannwarth, P. Shushkov, J. Chem. Theory Comput., 2017,
     13, 1989-2009. DOI: 10.1021/acs.jctc.7b00118
   for GFN0-xTB:
   * P. Pracht, E. Caldeweyher, S. Ehlert, S. Grimme, ChemRxiv, 2019, preprint.
     DOI: 10.26434/chemrxiv.8326202.v1
   for GFN-FF:
   * S. Spicher and S. Grimme, Angew. Chem. Int. Ed., 2020, 59, 15665-15673.
     DOI: 10.1002/anie.202004239
   
   for ALPB and GBSA implicit solvation:
   * S. Ehlert, M. Stahn, S. Spicher, S. Grimme, J. Chem. Theory Comput.,
     2021, 17, 4250-4261. DOI: 10.1021/acs.jctc.1c00471
   
   for DFT-D4:
   * E. Caldeweyher, C. Bannwarth and S. Grimme, J. Chem. Phys., 2017,
     147, 034112. DOI: 10.1063/1.4993215
   * E. Caldeweyher, S. Ehlert, A. Hansen, H. Neugebauer, S. Spicher,
     C. Bannwarth and S. Grimme, J. Chem. Phys., 2019, 150, 154122.
     DOI: 10.1063/1.5090222
   * E. Caldeweyher, J.-M. Mewes, S. Ehlert and S. Grimme, Phys. Chem. Chem. Phys.
     2020, 22, 8499-8512. DOI: 10.1039/D0CP00502A
   
   for sTDA-xTB:
   * S. Grimme and C. Bannwarth, J. Chem. Phys., 2016, 145, 054103.
     DOI: 10.1063/1.4959605
   
   in the mass-spec context:
   * V. Asgeirsson, C. Bauer and S. Grimme, Chem. Sci., 2017, 8, 4879.
     DOI: 10.1039/c7sc00601b
   * J. Koopman and S. Grimme, ACS Omega 2019, 4, 12, 15120-15133.
     DOI: 10.1021/acsomega.9b02011
   
   for metadynamics refer to:
   * S. Grimme, J. Chem. Theory Comput., 2019, 155, 2847-2862
     DOI: 10.1021/acs.jctc.9b00143
   
   for SPH calculations refer to:
   * S. Spicher and S. Grimme, J. Chem. Theory Comput., 2021, 17, 1701-1714
     DOI: 10.1021/acs.jctc.0c01306
   
   with help from (in alphabetical order)
   P. Atkinson, C. Bannwarth, F. Bohle, G. Brandenburg, E. Caldeweyher
   M. Checinski, S. Dohm, S. Ehlert, S. Ehrlich, I. Gerasimov, J. Koopman
   C. Lavigne, S. Lehtola, F. März, M. Müller, F. Musil, H. Neugebauer
   J. Pisarek, C. Plett, P. Pracht, J. Seibert, P. Shushkov, S. Spicher
   M. Stahn, M. Steiner, T. Strunk, J. Stückrath, T. Rose, and J. Unsleber
   
 * started run on 2022/01/14 at 15:22:16.750     

           -------------------------------------------------
          |                Calculation Setup                |
           -------------------------------------------------

          program call               : xtb xtbopt.xyz --sp --alpb thf -P 6
          hostname                   : seskscpg007.prim.scp
          coordinate file            : xtbopt.xyz
          omp threads                :                     6
          number of atoms            :                   118
          number of electrons        :                   326
          charge                     :                     0
          spin                       :                   0.0
          first test random number   :      0.10149871773431

   ID    Z sym.   atoms
    1    7 N      1, 11, 94
    2    6 C      2-6, 10, 12-15, 23, 24, 28, 32, 34, 38, 44, 45, 49, 53, 55,
                  59, 65, 66, 70, 74, 76, 80, 86-88, 90, 91, 93, 95, 97, 98,
                  100, 101, 106, 111-113, 115
    3    1 H      7-9, 16-18, 20, 25-27, 29-31, 35-37, 39-41, 46-48, 50-52,
                  56-58, 60-62, 67-69, 71-73, 77-79, 81-85, 92, 96, 99, 102,
                  107-110, 114, 116-118
    4   77 Ir     19
    5    5 B      21, 42, 63, 89
    6    8 O      22, 33, 43, 54, 64, 75
    7    9 F      103-105

molecular fragmentation (1/2 indicates fragments):
111111111111111111111111111111111111111111111111111111111111111111111111
1111111111111222222222222222222222222222222222
# atoms in fragment 1/2:    85    33
 fragment masses (1/2) :      730.32      286.08
CMA distance (Bohr)    :   8.456
constraining FC (au)   :  0.0500

           -------------------------------------------------
          |                 G F N 2 - x T B                 |
           -------------------------------------------------

        Reference                      10.1021/acs.jctc.8b01176
      * Hamiltonian:
        H0-scaling (s, p, d)           1.850000    2.230000    2.230000
        zeta-weighting                 0.500000
      * Dispersion:
        s8                             2.700000
        a1                             0.520000
        a2                             5.000000
        s9                             5.000000
      * Repulsion:
        kExp                           1.500000    1.000000
        rExp                           1.000000
      * Coulomb:
        alpha                          2.000000
        third order                    shell-resolved
        anisotropic                    true
        a3                             3.000000
        a5                             4.000000
        cn-shift                       1.200000
        cn-exp                         4.000000
        max-rad                        5.000000

      * Solvation model:               ALPB
        Solvent                        thf
        Parameter file                 internal GFN2-xTB/ALPB
        Dielectric constant                7.6000E+00
        Reference state                gsolv [1 M gas/solution]
        Free energy shift                  5.3248E-03 Eh       3.3414E+00 kcal/mol
        Temperature                        2.9815E+02 K
        Density                            8.8300E-01 kg/L
        Solvent mass                       7.2106E+01 g/mol
        Interaction kernel             P16
        Born radius scaling (c1)           1.7311E+00
        Born radii integrator          GBOBC
        Born offset                        0.0000E+00 a0       0.0000E+00 AA
        H-bond correction              true
        Ion screening                  false
        Surface tension                    1.0000E-05 Eh       1.5569E+01 dyn/cm
        Grid points                               230 per atom
q/qsh data taken from xtbrestart
CAMM data taken from xtbrestart

          ...................................................
          :                      SETUP                      :
          :.................................................:
          :  # basis functions                 307          :
          :  # atomic orbitals                 306          :
          :  # shells                          180          :
          :  # electrons                       326          :
          :  max. iterations                   250          :
          :  Hamiltonian                  GFN2-xTB          :
          :  restarted?                       true          :
          :  GBSA solvation                   true          :
          :  PC potential                    false          :
          :  electronic temp.          300.0000000     K    :
          :  accuracy                    1.0000000          :
          :  -> integral cutoff          0.2500000E+02      :
          :  -> integral neglect         0.1000000E-07      :
          :  -> SCF convergence          0.1000000E-05 Eh   :
          :  -> wf. convergence          0.1000000E-03 e    :
          :  Broyden damping             0.4000000          :
          ...................................................

 iter      E             dE          RMSdq      gap      omega  full diag
   1   -182.1518385 -0.182152E+03  0.315E-05    0.97       0.0  T
   2   -182.1518385  0.309285E-09  0.590E-05    0.97     155.9  T
   3   -182.1518385 -0.377042E-09  0.170E-05    0.97     541.8  T

   *** convergence criteria satisfied after 3 iterations ***

         #    Occupation            Energy/Eh            Energy/eV
      -------------------------------------------------------------
         1        2.0000           -0.8719180             -23.7261
       ...           ...                  ...                  ...
       157        2.0000           -0.3729506             -10.1485
       158        2.0000           -0.3509272              -9.5492
       159        2.0000           -0.3337413              -9.0816
       160        2.0000           -0.3274201              -8.9096
       161        2.0000           -0.3224420              -8.7741
       162        2.0000           -0.3150695              -8.5735
       163        2.0000           -0.3103908              -8.4462 (HOMO)
       164                         -0.2748931              -7.4802 (LUMO)
       165                         -0.2548537              -6.9349
       166                         -0.2469285              -6.7193
       167                         -0.2441370              -6.6433
       168                         -0.2336157              -6.3570
       ...                                ...                  ...
       306                          4.0444047             110.0539
      -------------------------------------------------------------
                  HL-Gap            0.0354977 Eh            0.9659 eV
             Fermi-level           -0.2926385 Eh           -7.9631 eV

 SCC (total)                   0 d,  0 h,  0 min,  0.125 sec
 SCC setup                      ...        0 min,  0.003 sec (  2.300%)
 Dispersion                     ...        0 min,  0.004 sec (  2.931%)
 classical contributions        ...        0 min,  0.000 sec (  0.161%)
 integral evaluation            ...        0 min,  0.014 sec ( 11.196%)
 iterations                     ...        0 min,  0.049 sec ( 38.753%)
 molecular gradient             ...        0 min,  0.055 sec ( 43.860%)
 printout                       ...        0 min,  0.001 sec (  0.746%)

         :::::::::::::::::::::::::::::::::::::::::::::::::::::
         ::                     SUMMARY                     ::
         :::::::::::::::::::::::::::::::::::::::::::::::::::::
         :: total energy            -179.849817631688 Eh    ::
         :: total w/o Gsasa/hb      -179.809012106098 Eh    ::
         :: gradient norm              0.030082992059 Eh/a0 ::
         :: HOMO-LUMO gap              0.965941647623 eV    ::
         ::.................................................::
         :: SCC energy              -182.151838524320 Eh    ::
         :: -> isotropic ES            0.297075366151 Eh    ::
         :: -> anisotropic ES          0.010234635583 Eh    ::
         :: -> anisotropic XC          0.043253096362 Eh    ::
         :: -> dispersion             -0.183643089995 Eh    ::
         :: -> Gsolv                  -0.053271732152 Eh    ::
         ::    -> Gelec               -0.012466206562 Eh    ::
         ::    -> Gsasa               -0.043520403873 Eh    ::
         ::    -> Ghb                 -0.002609937161 Eh    ::
         ::    -> Gshift               0.005324815444 Eh    ::
         :: repulsion energy           2.289271883515 Eh    ::
         :: add. restraining           0.000000000000 Eh    ::
         :: total charge               0.000000000112 e     ::
         :::::::::::::::::::::::::::::::::::::::::::::::::::::

           -------------------------------------------------
          |                Property Printout                |
           -------------------------------------------------

    * Orbital Energies and Occupations

         #    Occupation            Energy/Eh            Energy/eV
      -------------------------------------------------------------
         1        2.0000           -0.8719180             -23.7261
       ...           ...                  ...                  ...
       151        2.0000           -0.3885725             -10.5736
       152        2.0000           -0.3882102             -10.5637
       153        2.0000           -0.3869995             -10.5308
       154        2.0000           -0.3851654             -10.4809
       155        2.0000           -0.3840792             -10.4513
       156        2.0000           -0.3838821             -10.4460
       157        2.0000           -0.3729506             -10.1485
       158        2.0000           -0.3509272              -9.5492
       159        2.0000           -0.3337413              -9.0816
       160        2.0000           -0.3274201              -8.9096
       161        2.0000           -0.3224420              -8.7741
       162        2.0000           -0.3150695              -8.5735
       163        2.0000           -0.3103908              -8.4462 (HOMO)
       164                         -0.2748931              -7.4802 (LUMO)
       165                         -0.2548537              -6.9349
       166                         -0.2469285              -6.7193
       167                         -0.2441370              -6.6433
       168                         -0.2336157              -6.3570
       169                         -0.2204304              -5.9982
       170                         -0.2146599              -5.8412
       171                         -0.2030307              -5.5247
       172                         -0.1889089              -5.1405
       173                         -0.1847594              -5.0276
       174                         -0.1524464              -4.1483
       ...                                ...                  ...
       306                          4.0444047             110.0539
      -------------------------------------------------------------
                  HL-Gap            0.0354977 Eh            0.9659 eV
             Fermi-level           -0.2926385 Eh           -7.9631 eV

     #   Z          covCN         q      C6AA      α(0)
     1   7 N        2.561    -0.122    23.678     7.227
     2   6 C        2.956     0.077    26.285     8.409
     3   6 C        2.918    -0.039    28.981     8.828
     4   6 C        2.923    -0.021    28.540     8.761
     5   6 C        2.915    -0.046    29.140     8.852
     6   6 C        2.892     0.044    27.014     8.522
     7   1 H        0.925     0.057     2.238     2.339
     8   1 H        0.926     0.057     2.236     2.339
     9   1 H        0.926     0.043     2.406     2.426
    10   6 C        2.955     0.070    26.425     8.431
    11   7 N        2.564    -0.129    23.821     7.248
    12   6 C        2.890     0.040    27.095     8.534
    13   6 C        2.915    -0.044    29.103     8.846
    14   6 C        2.923    -0.026    28.642     8.776
    15   6 C        2.919    -0.042    29.055     8.839
    16   1 H        0.926     0.045     2.389     2.417
    17   1 H        0.926     0.052     2.293     2.368
    18   1 H        0.926     0.078     1.997     2.210
    19  77 Ir       5.960    -0.136   385.840    36.324
    20   1 H        0.977     0.092     1.859     2.130
    21   5 B        2.629     0.407    15.984     6.755
    22   8 O        1.638    -0.405    20.955     6.179
    23   6 C        3.835     0.129    18.458     6.112
    24   6 C        3.755    -0.122    22.897     6.823
    25   1 H        0.925     0.053     2.278     2.360
    26   1 H        0.925     0.046     2.371     2.408
    27   1 H        0.925     0.053     2.280     2.361
    28   6 C        3.755    -0.112    22.700     6.794
    29   1 H        0.925     0.049     2.330     2.387
    30   1 H        0.925     0.044     2.395     2.420
    31   1 H        0.925     0.029     2.602     2.523
    32   6 C        3.840     0.130    18.443     6.109
    33   8 O        1.637    -0.403    20.921     6.174
    34   6 C        3.755    -0.124    22.929     6.828
    35   1 H        0.925     0.056     2.251     2.346
    36   1 H        0.925     0.047     2.360     2.402
    37   1 H        0.925     0.049     2.330     2.387
    38   6 C        3.755    -0.121    22.869     6.819
    39   1 H        0.925     0.047     2.363     2.404
    40   1 H        0.925     0.053     2.278     2.360
    41   1 H        0.925     0.047     2.359     2.402
    42   5 B        2.626     0.400    16.077     6.778
    43   8 O        1.637    -0.385    20.577     6.123
    44   6 C        3.837     0.129    18.467     6.114
    45   6 C        3.754    -0.126    22.979     6.835
    46   1 H        0.925     0.055     2.259     2.350
    47   1 H        0.925     0.056     2.249     2.345
    48   1 H        0.925     0.049     2.329     2.386
    49   6 C        3.755    -0.122    22.897     6.823
    50   1 H        0.925     0.049     2.327     2.385
    51   1 H        0.925     0.048     2.350     2.397
    52   1 H        0.925     0.053     2.284     2.363
    53   6 C        3.834     0.127    18.491     6.118
    54   8 O        1.637    -0.381    20.493     6.111
    55   6 C        3.755    -0.126    22.973     6.834
    56   1 H        0.925     0.056     2.245     2.343
    57   1 H        0.925     0.056     2.243     2.342
    58   1 H        0.925     0.049     2.332     2.388
    59   6 C        3.755    -0.121    22.871     6.819
    60   1 H        0.925     0.035     2.517     2.481
    61   1 H        0.925     0.053     2.287     2.365
    62   1 H        0.925     0.052     2.298     2.370
    63   5 B        2.626     0.403    16.036     6.769
    64   8 O        1.637    -0.379    20.458     6.105
    65   6 C        3.831     0.125    18.528     6.124
    66   6 C        3.755    -0.129    23.040     6.844
    67   1 H        0.925     0.057     2.237     2.339
    68   1 H        0.925     0.052     2.298     2.371
    69   1 H        0.925     0.051     2.307     2.375
    70   6 C        3.755    -0.131    23.071     6.849
    71   1 H        0.925     0.061     2.186     2.312
    72   1 H        0.925     0.051     2.303     2.373
    73   1 H        0.925     0.055     2.260     2.351
    74   6 C        3.830     0.128    18.490     6.118
    75   8 O        1.637    -0.377    20.416     6.099
    76   6 C        3.755    -0.125    22.949     6.831
    77   1 H        0.925     0.052     2.298     2.371
    78   1 H        0.925     0.055     2.261     2.352
    79   1 H        0.925     0.055     2.261     2.351
    80   6 C        3.755    -0.123    22.913     6.825
    81   1 H        0.925     0.043     2.411     2.428
    82   1 H        0.925     0.049     2.333     2.389
    83   1 H        0.925     0.056     2.246     2.343
    84   1 H        0.926     0.052     2.297     2.370
    85   1 H        0.926     0.049     2.335     2.390
    86   6 C        2.828    -0.028    28.694     8.778
    87   6 C        2.886    -0.055    29.367     8.884
    88   6 C        2.921    -0.039    28.959     8.825
    89   5 B        2.676     0.235    18.010     7.134
    90   6 C        2.927    -0.038    28.946     8.823
    91   6 C        2.974    -0.042    29.038     8.839
    92   1 H        0.926     0.052     2.295     2.369
    93   6 C        2.824    -0.116    30.927     9.112
    94   7 N        2.666    -0.089    22.981     7.120
    95   6 C        2.915    -0.042    29.032     8.835
    96   1 H        0.926     0.045     2.386     2.416
    97   6 C        3.337     0.484    17.302     6.586
    98   6 C        2.907    -0.035    28.871     8.810
    99   1 H        0.925     0.017     2.776     2.606
   100   6 C        3.701    -0.067    21.947     6.699
   101   6 C        2.925     0.056    26.744     8.481
   102   1 H        0.926     0.043     2.412     2.429
   103   9 F        0.791    -0.225    11.495     4.005
   104   9 F        0.791    -0.232    11.572     4.018
   105   9 F        0.791    -0.223    11.471     4.001
   106   6 C        2.983    -0.012    28.317     8.729
   107   1 H        0.925     0.024     2.680     2.560
   108   1 H        0.924     0.063     2.159     2.298
   109   1 H        0.925     0.070     2.083     2.257
   110   1 H        0.924     0.056     2.251     2.346
   111   6 C        2.919    -0.059    29.466     8.902
   112   6 C        2.925    -0.040    28.993     8.830
   113   6 C        2.919    -0.037    28.919     8.819
   114   1 H        0.926     0.041     2.434     2.440
   115   6 C        2.914    -0.045    29.128     8.850
   116   1 H        0.926     0.033     2.540     2.492
   117   1 H        0.926     0.036     2.502     2.473
   118   1 H        0.926     0.033     2.540     2.492

 Mol. C6AA /au·bohr⁶  :     155086.407677
 Mol. C8AA /au·bohr⁸  :    4087220.755534
 Mol. α(0) /au        :        612.193739


Wiberg/Mayer (AO) data.
largest (>0.10) Wiberg bond orders for each atom

 ---------------------------------------------------------------------------
     #   Z sym  total        # sym  WBO       # sym  WBO       # sym  WBO
 ---------------------------------------------------------------------------
     1   7 N    3.408 --     6 C    1.378     2 C    1.308    19 Ir   0.452
     2   6 C    3.979 --     3 C    1.344     1 N    1.308    10 C    1.098
     3   6 C    3.988 --     4 C    1.487     2 C    1.344     9 H    0.962
                             6 C    0.106
     4   6 C    3.982 --     3 C    1.487     5 C    1.377    84 H    0.969
     5   6 C    3.978 --     6 C    1.464     4 C    1.377     8 H    0.968
     6   6 C    3.977 --     5 C    1.464     1 N    1.378     7 H    0.956
                             3 C    0.106
     7   1 H    0.996 --     6 C    0.956
     8   1 H    0.996 --     5 C    0.968
     9   1 H    0.998 --     3 C    0.962
    10   6 C    3.978 --    15 C    1.353    11 N    1.295     2 C    1.098
    11   7 N    3.406 --    12 C    1.369    10 C    1.295    19 Ir   0.432
    12   6 C    3.971 --    13 C    1.465    11 N    1.369    18 H    0.948
                            15 C    0.104
    13   6 C    3.982 --    12 C    1.465    14 C    1.380    17 H    0.969
    14   6 C    3.979 --    15 C    1.476    13 C    1.380    85 H    0.969
    15   6 C    3.989 --    14 C    1.476    10 C    1.353    16 H    0.962
                            12 C    0.104
    16   1 H    0.998 --    15 C    0.962
    17   1 H    0.997 --    13 C    0.969
    18   1 H    0.993 --    12 C    0.948
    19  77 Ir   5.139 --    63 B    0.846    42 B    0.843    21 B    0.696
                            86 C    0.592    20 H    0.553     1 N    0.452
                            11 N    0.432
    20   1 H    0.988 --    19 Ir   0.553    86 C    0.330
    21   5 B    3.289 --    33 O    1.114    22 O    1.101    19 Ir   0.696
    22   8 O    2.197 --    21 B    1.101    23 C    0.940
    23   6 C    3.942 --    24 C    0.996    28 C    0.991    22 O    0.940
                            32 C    0.940
    24   6 C    3.993 --    23 C    0.996    26 H    0.983    27 H    0.983
                            25 H    0.982
    25   1 H    0.997 --    24 C    0.982
    26   1 H    0.997 --    24 C    0.983
    27   1 H    0.997 --    24 C    0.983
    28   6 C    3.996 --    23 C    0.991    29 H    0.984    30 H    0.984
                            31 H    0.984
    29   1 H    0.997 --    28 C    0.984
    30   1 H    0.998 --    28 C    0.984
    31   1 H    0.999 --    28 C    0.984
    32   6 C    3.938 --    38 C    0.997    34 C    0.991    23 C    0.940
                            33 O    0.937
    33   8 O    2.202 --    21 B    1.114    32 C    0.937
    34   6 C    3.993 --    32 C    0.991    36 H    0.983    37 H    0.981
                            35 H    0.979
    35   1 H    0.997 --    34 C    0.979
    36   1 H    0.997 --    34 C    0.983
    37   1 H    0.997 --    34 C    0.981
    38   6 C    3.994 --    32 C    0.997    41 H    0.984    39 H    0.983
                            40 H    0.983
    39   1 H    0.998 --    38 C    0.983
    40   1 H    0.997 --    38 C    0.983
    41   1 H    0.997 --    38 C    0.984
    42   5 B    3.334 --    43 O    1.115    54 O    1.114    19 Ir   0.843
    43   8 O    2.224 --    42 B    1.115    44 C    0.935
    44   6 C    3.937 --    45 C    0.997    49 C    0.991    53 C    0.939
                            43 O    0.935
    45   6 C    3.992 --    44 C    0.997    48 H    0.983    46 H    0.982
                            47 H    0.982
    46   1 H    0.997 --    45 C    0.982
    47   1 H    0.997 --    45 C    0.982
    48   1 H    0.996 --    45 C    0.983
    49   6 C    3.994 --    44 C    0.991    50 H    0.983    51 H    0.982
                            52 H    0.979
    50   1 H    0.997 --    49 C    0.983
    51   1 H    0.997 --    49 C    0.982
    52   1 H    0.997 --    49 C    0.979
    53   6 C    3.938 --    55 C    0.996    59 C    0.992    44 C    0.939
                            54 O    0.934
    54   8 O    2.229 --    42 B    1.114    53 C    0.934
    55   6 C    3.992 --    53 C    0.996    58 H    0.983    57 H    0.983
                            56 H    0.982
    56   1 H    0.997 --    55 C    0.982
    57   1 H    0.997 --    55 C    0.983
    58   1 H    0.996 --    55 C    0.983
    59   6 C    3.995 --    53 C    0.992    61 H    0.983    62 H    0.983
                            60 H    0.983
    60   1 H    0.999 --    59 C    0.983
    61   1 H    0.996 --    59 C    0.983
    62   1 H    0.997 --    59 C    0.983
    63   5 B    3.365 --    75 O    1.126    64 O    1.108    19 Ir   0.846
    64   8 O    2.227 --    63 B    1.108    65 C    0.937
    65   6 C    3.937 --    70 C    0.997    66 C    0.991    74 C    0.939
                            64 O    0.937
    66   6 C    3.993 --    65 C    0.991    69 H    0.983    68 H    0.983
                            67 H    0.979
    67   1 H    0.997 --    66 C    0.979
    68   1 H    0.997 --    66 C    0.983
    69   1 H    0.996 --    66 C    0.983
    70   6 C    3.992 --    65 C    0.997    72 H    0.983    73 H    0.982
                            71 H    0.982
    71   1 H    0.996 --    70 C    0.982
    72   1 H    0.996 --    70 C    0.983
    73   1 H    0.997 --    70 C    0.982
    74   6 C    3.934 --    76 C    0.997    80 C    0.991    65 C    0.939
                            75 O    0.933
    75   8 O    2.239 --    63 B    1.126    74 C    0.933
    76   6 C    3.992 --    74 C    0.997    77 H    0.983    78 H    0.982
                            79 H    0.981
    77   1 H    0.996 --    76 C    0.983
    78   1 H    0.997 --    76 C    0.982
    79   1 H    0.997 --    76 C    0.981
    80   6 C    3.994 --    74 C    0.991    81 H    0.984    83 H    0.983
                            82 H    0.983
    81   1 H    0.998 --    80 C    0.984
    82   1 H    0.997 --    80 C    0.983
    83   1 H    0.996 --    80 C    0.983
    84   1 H    0.996 --     4 C    0.969
    85   1 H    0.997 --    14 C    0.969
    86   6 C    3.935 --    88 C    1.375    87 C    1.354    19 Ir   0.592
                            20 H    0.330
    87   6 C    3.951 --    90 C    1.391    86 C    1.354    89 B    0.963
    88   6 C    3.985 --    91 C    1.421    86 C    1.375    92 H    0.960
    89   5 B    3.508 --    94 N    1.233    93 C    1.097    87 C    0.963
    90   6 C    3.984 --    95 C    1.454    87 C    1.391    96 H    0.967
    91   6 C    3.950 --    88 C    1.421    95 C    1.374    97 C    0.953
    92   1 H    0.996 --    88 C    0.960
    93   6 C    3.968 --    98 C    1.711    89 B    1.097    99 H    0.972
    94   7 N    3.596 --    89 B    1.233   101 C    1.178   100 C    1.004
    95   6 C    3.982 --    90 C    1.454    91 C    1.374   102 H    0.968
    96   1 H    0.997 --    90 C    0.967
    97   6 C    3.793 --    91 C    0.953   105 F    0.940   103 F    0.936
                           104 F    0.922
    98   6 C    3.990 --    93 C    1.711   106 C    1.186   107 H    0.964
    99   1 H    0.999 --    93 C    0.972
   100   6 C    3.970 --    94 N    1.004   109 H    0.975   108 H    0.973
                           110 H    0.968
   101   6 C    3.973 --   111 C    1.326   106 C    1.271    94 N    1.178
   102   1 H    0.996 --    95 C    0.968
   103   9 F    1.055 --    97 C    0.936
   104   9 F    1.047 --    97 C    0.922
   105   9 F    1.060 --    97 C    0.940
   106   6 C    3.988 --   112 C    1.336   101 C    1.271    98 C    1.186
   107   1 H    0.998 --    98 C    0.964
   108   1 H    0.996 --   100 C    0.973
   109   1 H    0.995 --   100 C    0.975
   110   1 H    0.997 --   100 C    0.968
   111   6 C    3.987 --   113 C    1.494   101 C    1.326   114 H    0.964
                           112 C    0.108
   112   6 C    3.990 --   115 C    1.497   106 C    1.336   116 H    0.968
                           111 C    0.108
   113   6 C    3.991 --   111 C    1.494   115 C    1.376   117 H    0.971
   114   1 H    0.998 --   111 C    0.964
   115   6 C    3.990 --   112 C    1.497   113 C    1.376   118 H    0.971
   116   1 H    0.998 --   112 C    0.968
   117   1 H    0.998 --   113 C    0.971
   118   1 H    0.998 --   115 C    0.971
 ---------------------------------------------------------------------------

Topologies differ in total number of bonds
Writing topology from bond orders to xtbtopo.mol

molecular dipole:
                 x           y           z       tot (Debye)
 q only:       -1.302       0.113      -3.137
   full:       -2.191       0.549      -3.466      10.516
molecular quadrupole (traceless):
                xx          xy          yy          xz          yz          zz
 q only:       15.395      13.443      24.182     -25.599      23.182     -39.576
  q+dip:       19.042      11.008      19.531     -19.455      29.136     -38.573
   full:       16.073      14.034      21.565     -24.050      24.712     -37.639


           -------------------------------------------------
          | TOTAL ENERGY             -179.849817631688 Eh   |
          | GRADIENT NORM               0.030082992059 Eh/α |
          | HOMO-LUMO GAP               0.965941647623 eV   |
           -------------------------------------------------

------------------------------------------------------------------------
 * finished run on 2022/01/14 at 15:22:16.914     
------------------------------------------------------------------------
 total:
 * wall-time:     0 d,  0 h,  0 min,  0.164 sec
 *  cpu-time:     0 d,  0 h,  0 min,  0.955 sec
 * ratio c/w:     5.828 speedup
 SCF:
 * wall-time:     0 d,  0 h,  0 min,  0.127 sec
 *  cpu-time:     0 d,  0 h,  0 min,  0.756 sec
 * ratio c/w:     5.942 speedup

