108
 energy: -154.757434996459 gnorm: 0.000278383725 xtb: 6.4.0 (f63f532)
N        -0.95116584296759   -1.96819252170095   -0.37834523981344
C        -2.19733412603926   -1.47177174750459   -0.51334775655363
C        -3.10604832498794   -2.04504312885186   -1.41333944595823
C        -2.72429986829495   -3.12009247923409   -2.18427046004663
C        -1.42918385090986   -3.61529001914955   -2.04156878250077
C        -0.59380288529254   -3.00731138735731   -1.12916447316881
H         0.41569267903576   -3.36308526506803   -0.97726140075717
H        -1.08674355424037   -4.45530770509253   -2.62382863475856
H        -4.10512853165263   -1.65240484442132   -1.50779105749079
C        -2.52476154665755   -0.32229214681775    0.31730326049763
N        -1.56309796086570    0.09760056903843    1.16912790218200
C        -1.82175758848017    1.13942948051408    1.95803694891333
C        -3.01622007984852    1.82848766646921    1.94424306843280
C        -4.00949609001061    1.42198712231796    1.05548591648163
C        -3.75657337047374    0.34060548662272    0.24067890658730
H        -4.51142846899509    0.01339924733739   -0.45506749669954
H        -3.17142209810625    2.66179270767134    2.61037936433279
H        -1.01785999272076    1.42601764324933    2.61818703602196
Ir        0.42149999999997   -0.81649999999974    0.91330000000009
H         0.87260000000003   -2.23029999999996    1.54050000000008
B         0.43010513048790    0.65844929525499   -0.56728031667982
O        -0.26426367870071    0.45543099954313   -1.74814475217762
C        -0.31027113284241    1.67134198433313   -2.50315097076603
C        -0.13849067381802    1.36418658968730   -3.98847944126523
H         0.73849285506899    0.74739239919776   -4.15450468736601
H        -0.04810000929086    2.28887849778805   -4.55270005691798
H        -1.00971920159861    0.81930047343615   -4.34426779630025
C        -1.69499870621381    2.29328440345096   -2.27087420374744
H        -1.82183043085069    3.19973184173948   -2.85559386125387
H        -2.45502732608661    1.57197272781345   -2.56499191027732
H        -1.83239229518943    2.51472676227674   -1.21424730479438
C         0.84202160845293    2.51125084062997   -1.86268193370997
O         0.95715587590130    1.93019001086123   -0.55694016257770
C         2.18821250818580    2.28933667866433   -2.56320079961318
H         2.41101508120203    1.22509662879624   -2.57625137565449
H         2.18445549028125    2.69386346304123   -3.57136329404958
H         2.96594779143809    2.78213009752721   -1.98460897970763
C         0.56535338036240    4.00898539347862   -1.74926986693324
H        -0.27969845986543    4.20547381441231   -1.09683780882417
H         1.43926481810202    4.50193648493966   -1.32992365753445
H         0.36766425283041    4.42563061599652   -2.73378577039535
B         1.61666950043563    0.59901423660399    1.89164625387443
O         2.98705479486214    0.69683247255728    1.87830968727994
C         3.40501212654996    1.93285445906409    2.47587519591085
C         4.64899277248812    1.69843656702811    3.33201622797224
H         4.49507684087532    0.88096637650940    4.02952227550615
H         5.48361392562192    1.43940871411030    2.68505588391913
H         4.90087677978399    2.60256259731526    3.87959540236232
C         3.74363050878351    2.88310093143829    1.32066499610185
H         4.04973991041912    3.85975793365870    1.68372085738941
H         4.55627327144778    2.45073986825790    0.74093237612337
H         2.87781074601009    2.96946313623921    0.66921488817918
C         2.13257173494091    2.37632672727499    3.27512219824146
O         1.08671045899592    1.61018839100448    2.66075795098826
C         1.79059008632974    3.86194882047594    3.17200807793170
H         1.56462119891983    4.13288449273749    2.14606143470287
H         0.91297019624967    4.06616540097250    3.78051408475635
H         2.61797446206137    4.46412407437715    3.53754298035164
C         2.18459547895300    1.97066174128719    4.75238604303982
H         2.42515279349756    0.91578126696097    4.83717869475063
H         2.91920340139726    2.55993940248647    5.29247634187767
H         1.20388132436486    2.13296606871793    5.19396905639059
B         2.27820000000041   -1.33090000000014    0.17410000000093
O         3.08755427736259   -2.31339320347045    0.71013262440156
C         4.37966363451198   -2.29035891569853    0.09398826268235
C         5.31995402622570   -1.59355344968169    1.08312480386286
H         4.91805728648272   -0.61309787442951    1.31931220099643
H         5.33881078249872   -2.17234258787697    2.00422992486335
H         6.32907705474129   -1.51426060652863    0.69074231823677
C         4.86000567516081   -3.72397917004843   -0.13385845317284
H         4.98156998114720   -4.20661387078374    0.83221546566350
H         5.81590031615758   -3.72151988316982   -0.64999248117355
H         4.13911521786358   -4.29699688823404   -0.70734836262729
C         4.12742550254515   -1.45792751124748   -1.21314277412562
O         2.88146551944124   -0.79871374676181   -0.94180482642323
C         5.19344169110047   -0.40612962274558   -1.51582549077377
H         6.16783635058438   -0.87465165088767   -1.62253939710102
H         4.94194557014971    0.09919357595847   -2.44490610612346
H         5.22467555573403    0.33521921730062   -0.72512485943902
C         3.91665464162721   -2.33097972903137   -2.45790746399550
H         3.12518561822766   -3.05383576147490   -2.28018592788662
H         3.60768590961146   -1.69237622329528   -3.28191522405433
H         4.83178877812800   -2.84582220847506   -2.73422091172037
H        -3.41378694696283   -3.56848916942457   -2.88343247263638
H        -4.95502418418363    1.94060210050635    1.00483763987320
C         0.23589999999928   -1.68140000000315    2.96029999999859
C        -1.04598959114971   -2.04357617824077    3.36454780107064
C         1.22728779335135   -1.58363585765746    3.93175936968116
C        -1.33811884790360   -2.21019572401226    4.70907947363642
H        -1.83170133937442   -2.20296176835322    2.63871369359456
C         0.95164354731869   -1.77195972999617    5.27981562098433
H         2.23985008812205   -1.37145576479076    3.62116426786843
C        -0.34851849322972   -2.07456385662455    5.66654502537363
H        -2.34479656076201   -2.46736672576428    5.01050088901882
C         2.05714252633443   -1.66443802644239    6.30405243069376
H        -0.58306408814675   -2.22238299568550    6.71139678107840
C         3.34741168434258   -2.21310371487958    5.76630718485136
H         2.21145008845364   -0.61726705298187    6.57422107025702
H         1.77173492740612   -2.21273668162033    7.20472201130597
N         4.33222111529041   -1.35045189395663    5.55006415952649
C         3.47876828565618   -3.57246320624103    5.48744770448026
C         5.47340190522519   -1.80088095126789    5.05280736531662
C         4.67322489643834   -4.03689915756561    4.96960994663295
H         2.65123355013113   -4.24043455122418    5.67050384281768
C         5.70103460855881   -3.13141328247181    4.74535244264575
H         6.23795938373495   -1.05088943333574    4.89551693361573
H         4.80310196732217   -5.08555533579422    4.74319463896308
H         6.64978716686831   -3.44908996240956    4.34180406319393
