      -----------------------------------------------------------      
     |                   =====================                   |     
     |                           x T B                           |     
     |                   =====================                   |     
     |                         S. Grimme                         |     
     |          Mulliken Center for Theoretical Chemistry        |     
     |                    University of Bonn                     |     
      -----------------------------------------------------------      

   * xtb version 6.4.0 (f63f532) compiled by 'knkr256@seskscpg008.prim.scp' on 2021-04-09

   xtb is free software: you can redistribute it and/or modify it under
   the terms of the GNU Lesser General Public License as published by
   the Free Software Foundation, either version 3 of the License, or
   (at your option) any later version.
   
   xtb is distributed in the hope that it will be useful,
   but WITHOUT ANY WARRANTY; without even the implied warranty of
   MERCHANTABILITY or FITNESS FOR A PARTICULAR PURPOSE.  See the
   GNU Lesser General Public License for more details.
   
   Cite this work as:
   * C. Bannwarth, E. Caldeweyher, S. Ehlert, A. Hansen, P. Pracht,
     J. Seibert, S. Spicher, S. Grimme, WIREs Comput. Mol. Sci., 2020, 11,
     e01493. DOI: 10.1002/wcms.1493
   
   for GFN2-xTB:
   * C. Bannwarth, S. Ehlert and S. Grimme., J. Chem. Theory Comput., 2019,
     15, 1652-1671. DOI: 10.1021/acs.jctc.8b01176
   for GFN1-xTB:
   * S. Grimme, C. Bannwarth, P. Shushkov, J. Chem. Theory Comput., 2017,
     13, 1989-2009. DOI: 10.1021/acs.jctc.7b00118
   for GFN0-xTB:
   * P. Pracht, E. Caldeweyher, S. Ehlert, S. Grimme, ChemRxiv, 2019, preprint.
     DOI: 10.26434/chemrxiv.8326202.v1
   for GFN-FF:
   * S. Spicher and S. Grimme, Angew. Chem. Int. Ed., 2020, 59, 15665-15673.
     DOI: 10.1002/anie.202004239
   
   for DFT-D4:
   * E. Caldeweyher, C. Bannwarth and S. Grimme, J. Chem. Phys., 2017,
     147, 034112. DOI: 10.1063/1.4993215
   * E. Caldeweyher, S. Ehlert, A. Hansen, H. Neugebauer, S. Spicher,
     C. Bannwarth and S. Grimme, J. Chem. Phys., 2019, 150, 154122.
     DOI: 10.1063/1.5090222
   * E. Caldeweyher, J.-M. Mewes, S. Ehlert and S. Grimme, Phys. Chem. Chem. Phys.
     2020, 22, 8499-8512. DOI: 10.1039/D0CP00502A
   
   for sTDA-xTB:
   * S. Grimme and C. Bannwarth, J. Chem. Phys., 2016, 145, 054103.
     DOI: 10.1063/1.4959605
   
   in the mass-spec context:
   * V. Asgeirsson, C. Bauer and S. Grimme, Chem. Sci., 2017, 8, 4879.
     DOI: 10.1039/c7sc00601b
   * J. Koopman and S. Grimme, ACS Omega 2019, 4, 12, 15120-15133.
     DOI: 10.1021/acsomega.9b02011
   
   for metadynamics refer to:
   * S. Grimme, J. Chem. Theory Comput., 2019, 155, 2847-2862
     DOI: 10.1021/acs.jctc.9b00143
   
   for SPH calculations refer to:
   * S. Spicher and S. Grimme, J. Chem. Theory Comput., 2021, 17, 1701-1714
     DOI: 10.1021/acs.jctc.0c01306
   
   with help from (in alphabetical order)
   P. Atkinson, C. Bannwarth, F. Bohle, G. Brandenburg, E. Caldeweyher
   M. Checinski, S. Dohm, S. Ehlert, S. Ehrlich, I. Gerasimov, J. Koopman
   C. Lavinge, S. Lehtola, F. März, M. Müller, F. Musil, H. Neugebauer
   J. Pisarek, P. Pracht, J. Seibert, P. Shushkov, S. Spicher, M. Stahn
   T. Strunk, J. Stückrath, T. Rose, and J. Unsleber
   
 * started run on 2021/10/08 at 07:20:49.150     

           -------------------------------------------------
          |                Calculation Setup                |
           -------------------------------------------------

          program call               : xtb xtbopt.xyz --sp --alpb thf -P 6
          hostname                   : seskscpg010.prim.scp
          coordinate file            : xtbopt.xyz
          omp threads                :                     6
          number of atoms            :                   108
          number of electrons        :                   284
          charge                     :                     0
          spin                       :                   0.0
          first test random number   :      0.22894829393393

   ID    Z sym.   atoms
    1    7 N      1, 11, 91
    2    6 C      2-6, 10, 12-15, 23, 24, 28, 32, 34, 38, 44, 45, 49, 53, 55,
                  59, 65, 66, 70, 74, 76, 80, 86-89, 92, 93, 95, 99-101, 103,
                  105
    3    1 H      7-9, 16-18, 20, 25-27, 29-31, 35-37, 39-41, 46-48, 50-52,
                  56-58, 60-62, 67-69, 71-73, 77-79, 81-85, 90, 94, 96-98,
                  102, 104, 106-108
    4   77 Ir     19
    5    5 B      21, 42, 63
    6    8 O      22, 33, 43, 54, 64, 75

molecular fragmentation (1/2 indicates fragments):
111111111111111111111111111111111111111111111111111111111111111111111111
111111111111122222222222222222222222
# atoms in fragment 1/2:    85    23
 fragment masses (1/2) :      730.32      168.21
CMA distance (Bohr)    :   9.114
constraining FC (au)   :  0.0500

           -------------------------------------------------
          |                 G F N 2 - x T B                 |
           -------------------------------------------------

        Reference                      10.1021/acs.jctc.8b01176
      * Hamiltonian:
        H0-scaling (s, p, d)           1.850000    2.230000    2.230000
        zeta-weighting                 0.500000
      * Dispersion:
        s8                             2.700000
        a1                             0.520000
        a2                             5.000000
        s9                             5.000000
      * Repulsion:
        kExp                           1.500000    1.000000
        rExp                           1.000000
      * Coulomb:
        alpha                          2.000000
        third order                    shell-resolved
        anisotropic                    true
        a3                             3.000000
        a5                             4.000000
        cn-shift                       1.200000
        cn-exp                         4.000000
        max-rad                        5.000000

      * Solvation model:               ALPB
        Solvent                        thf
        Parameter file                 internal GFN2-xTB/ALPB
        Dielectric constant                7.6000E+00
        Reference state                gsolv [1 M gas/solution]
        Free energy shift                  5.3248E-03 Eh       3.3414E+00 kcal/mol
        Temperature                        2.9815E+02 K
        Density                            8.8300E-01 kg/L
        Solvent mass                       7.2106E+01 g/mol
        Interaction kernel             P16
        Born radius scaling (c1)           1.7311E+00
        Born radii integrator          GBOBC
        Born offset                        0.0000E+00 a0       0.0000E+00 AA
        H-bond correction              true
        Ion screening                  false
        Surface tension                    1.0000E-05 Eh       1.5569E+01 dyn/cm
        Grid points                               230 per atom
q/qsh data taken from xtbrestart
CAMM data taken from xtbrestart

          ...................................................
          :                      SETUP                      :
          :.................................................:
          :  # basis functions                 273          :
          :  # atomic orbitals                 272          :
          :  # shells                          162          :
          :  # electrons                       284          :
          :  max. iterations                   250          :
          :  Hamiltonian                  GFN2-xTB          :
          :  restarted?                       true          :
          :  GBSA solvation                   true          :
          :  PC potential                    false          :
          :  electronic temp.          300.0000000     K    :
          :  accuracy                    1.0000000          :
          :  -> integral cutoff          0.2500000E+02      :
          :  -> integral neglect         0.1000000E-07      :
          :  -> SCF convergence          0.1000000E-05 Eh   :
          :  -> wf. convergence          0.1000000E-03 e    :
          :  Broyden damping             0.4000000          :
          ...................................................

 iter      E             dE          RMSdq      gap      omega  full diag
   1   -156.8606268 -0.156861E+03  0.192E-05    0.88       0.0  T
   2   -156.8606268  0.154898E-10  0.209E-05    0.88     460.3  T
   3   -156.8606268 -0.137277E-10  0.142E-05    0.88     677.8  T

   *** convergence criteria satisfied after 3 iterations ***

         #    Occupation            Energy/Eh            Energy/eV
      -------------------------------------------------------------
         1        2.0000           -0.6765045             -18.4086
       ...           ...                  ...                  ...
       136        2.0000           -0.3566361              -9.7046
       137        2.0000           -0.3457373              -9.4080
       138        2.0000           -0.3355532              -9.1309
       139        2.0000           -0.3238708              -8.8130
       140        2.0000           -0.3198157              -8.7026
       141        2.0000           -0.3133366              -8.5263
       142        2.0000           -0.3113005              -8.4709 (HOMO)
       143                         -0.2789033              -7.5893 (LUMO)
       144                         -0.2505547              -6.8179
       145                         -0.2483690              -6.7585
       146                         -0.2280275              -6.2049
       147                         -0.2182735              -5.9395
       ...                                ...                  ...
       272                          3.6577888              99.5335
      -------------------------------------------------------------
                  HL-Gap            0.0323972 Eh            0.8816 eV
             Fermi-level           -0.2950491 Eh           -8.0287 eV

 SCC (total)                   0 d,  0 h,  0 min,  0.123 sec
 SCC setup                      ...        0 min,  0.003 sec (  2.311%)
 Dispersion                     ...        0 min,  0.003 sec (  2.135%)
 classical contributions        ...        0 min,  0.000 sec (  0.151%)
 integral evaluation            ...        0 min,  0.034 sec ( 27.362%)
 iterations                     ...        0 min,  0.036 sec ( 29.100%)
 molecular gradient             ...        0 min,  0.047 sec ( 38.392%)
 printout                       ...        0 min,  0.001 sec (  0.504%)

         :::::::::::::::::::::::::::::::::::::::::::::::::::::
         ::                     SUMMARY                     ::
         :::::::::::::::::::::::::::::::::::::::::::::::::::::
         :: total energy            -154.759309802458 Eh    ::
         :: total w/o Gsasa/hb      -154.717541623991 Eh    ::
         :: gradient norm              0.032622788929 Eh/a0 ::
         :: HOMO-LUMO gap              0.881572890931 eV    ::
         ::.................................................::
         :: SCC energy              -156.860626770828 Eh    ::
         :: -> isotropic ES            0.242870848957 Eh    ::
         :: -> anisotropic ES          0.013055414378 Eh    ::
         :: -> anisotropic XC          0.061314086880 Eh    ::
         :: -> dispersion             -0.156779705327 Eh    ::
         :: -> Gsolv                  -0.051359321570 Eh    ::
         ::    -> Gelec               -0.009591143103 Eh    ::
         ::    -> Gsasa               -0.044786992934 Eh    ::
         ::    -> Ghb                 -0.002306000977 Eh    ::
         ::    -> Gshift               0.005324815444 Eh    ::
         :: repulsion energy           2.090966500764 Eh    ::
         :: add. restraining           0.000000000000 Eh    ::
         :: total charge               0.000000000009 e     ::
         :::::::::::::::::::::::::::::::::::::::::::::::::::::

           -------------------------------------------------
          |                Property Printout                |
           -------------------------------------------------

    * Orbital Energies and Occupations

         #    Occupation            Energy/Eh            Energy/eV
      -------------------------------------------------------------
         1        2.0000           -0.6765045             -18.4086
       ...           ...                  ...                  ...
       130        2.0000           -0.3884046             -10.5690
       131        2.0000           -0.3881411             -10.5619
       132        2.0000           -0.3870471             -10.5321
       133        2.0000           -0.3834822             -10.4351
       134        2.0000           -0.3819532             -10.3935
       135        2.0000           -0.3750702             -10.2062
       136        2.0000           -0.3566361              -9.7046
       137        2.0000           -0.3457373              -9.4080
       138        2.0000           -0.3355532              -9.1309
       139        2.0000           -0.3238708              -8.8130
       140        2.0000           -0.3198157              -8.7026
       141        2.0000           -0.3133366              -8.5263
       142        2.0000           -0.3113005              -8.4709 (HOMO)
       143                         -0.2789033              -7.5893 (LUMO)
       144                         -0.2505547              -6.8179
       145                         -0.2483690              -6.7585
       146                         -0.2280275              -6.2049
       147                         -0.2182735              -5.9395
       148                         -0.2071257              -5.6362
       149                         -0.2056423              -5.5958
       150                         -0.2034144              -5.5352
       151                         -0.1931839              -5.2568
       152                         -0.1515852              -4.1248
       153                         -0.1298898              -3.5345
       ...                                ...                  ...
       272                          3.6577888              99.5335
      -------------------------------------------------------------
                  HL-Gap            0.0323972 Eh            0.8816 eV
             Fermi-level           -0.2950491 Eh           -8.0287 eV

     #   Z          covCN         q      C6AA      α(0)
     1   7 N        2.548    -0.123    23.706     7.231
     2   6 C        2.954     0.077    26.285     8.409
     3   6 C        2.918    -0.043    29.071     8.842
     4   6 C        2.924    -0.022    28.552     8.763
     5   6 C        2.915    -0.043    29.074     8.842
     6   6 C        2.893     0.049    26.898     8.503
     7   1 H        0.926     0.054     2.273     2.358
     8   1 H        0.926     0.057     2.237     2.339
     9   1 H        0.926     0.046     2.367     2.406
    10   6 C        2.952     0.074    26.335     8.417
    11   7 N        2.539    -0.133    23.927     7.264
    12   6 C        2.890     0.043    27.045     8.526
    13   6 C        2.915    -0.045    29.127     8.850
    14   6 C        2.922    -0.024    28.598     8.770
    15   6 C        2.918    -0.045    29.129     8.851
    16   1 H        0.926     0.045     2.380     2.412
    17   1 H        0.926     0.050     2.319     2.381
    18   1 H        0.926     0.075     2.031     2.229
    19  77 Ir       5.925    -0.149   387.422    36.399
    20   1 H        0.977     0.085     1.919     2.165
    21   5 B        2.627     0.404    16.025     6.766
    22   8 O        1.638    -0.410    21.051     6.193
    23   6 C        3.835     0.131    18.440     6.109
    24   6 C        3.755    -0.122    22.886     6.821
    25   1 H        0.925     0.054     2.269     2.356
    26   1 H        0.925     0.045     2.387     2.416
    27   1 H        0.925     0.051     2.309     2.376
    28   6 C        3.755    -0.107    22.605     6.779
    29   1 H        0.925     0.047     2.360     2.402
    30   1 H        0.925     0.040     2.448     2.447
    31   1 H        0.925     0.026     2.645     2.543
    32   6 C        3.839     0.131    18.433     6.108
    33   8 O        1.637    -0.404    20.945     6.178
    34   6 C        3.755    -0.120    22.849     6.816
    35   1 H        0.925     0.047     2.360     2.402
    36   1 H        0.925     0.047     2.355     2.400
    37   1 H        0.925     0.051     2.309     2.376
    38   6 C        3.754    -0.119    22.837     6.814
    39   1 H        0.925     0.046     2.374     2.410
    40   1 H        0.925     0.053     2.280     2.361
    41   1 H        0.925     0.045     2.382     2.414
    42   5 B        2.619     0.402    16.086     6.786
    43   8 O        1.637    -0.384    20.554     6.120
    44   6 C        3.832     0.128    18.476     6.116
    45   6 C        3.755    -0.128    23.008     6.839
    46   1 H        0.925     0.056     2.244     2.343
    47   1 H        0.925     0.058     2.227     2.333
    48   1 H        0.925     0.050     2.314     2.379
    49   6 C        3.755    -0.122    22.900     6.823
    50   1 H        0.925     0.049     2.337     2.391
    51   1 H        0.925     0.047     2.351     2.398
    52   1 H        0.925     0.052     2.291     2.367
    53   6 C        3.829     0.128    18.489     6.118
    54   8 O        1.637    -0.384    20.547     6.119
    55   6 C        3.755    -0.123    22.916     6.826
    56   1 H        0.925     0.052     2.294     2.369
    57   1 H        0.925     0.053     2.287     2.365
    58   1 H        0.925     0.049     2.334     2.389
    59   6 C        3.755    -0.124    22.940     6.829
    60   1 H        0.925     0.048     2.350     2.398
    61   1 H        0.925     0.053     2.280     2.361
    62   1 H        0.925     0.050     2.324     2.384
    63   5 B        2.628     0.400    16.071     6.774
    64   8 O        1.637    -0.374    20.367     6.092
    65   6 C        3.836     0.125    18.521     6.123
    66   6 C        3.755    -0.131    23.074     6.849
    67   1 H        0.925     0.058     2.225     2.332
    68   1 H        0.925     0.056     2.247     2.344
    69   1 H        0.925     0.051     2.303     2.373
    70   6 C        3.755    -0.127    22.984     6.836
    71   1 H        0.925     0.058     2.227     2.334
    72   1 H        0.925     0.052     2.297     2.370
    73   1 H        0.925     0.051     2.312     2.378
    74   6 C        3.828     0.126    18.515     6.123
    75   8 O        1.637    -0.381    20.490     6.110
    76   6 C        3.755    -0.125    22.953     6.831
    77   1 H        0.925     0.051     2.302     2.373
    78   1 H        0.925     0.052     2.290     2.367
    79   1 H        0.925     0.056     2.247     2.344
    80   6 C        3.755    -0.123    22.919     6.826
    81   1 H        0.925     0.040     2.452     2.449
    82   1 H        0.925     0.052     2.296     2.369
    83   1 H        0.925     0.055     2.262     2.352
    84   1 H        0.926     0.053     2.278     2.360
    85   1 H        0.926     0.050     2.325     2.384
    86   6 C        2.824    -0.040    28.986     8.822
    87   6 C        2.939    -0.016    28.408     8.741
    88   6 C        2.951     0.097    25.842     8.338
    89   6 C        2.909    -0.055    29.357     8.885
    90   1 H        0.925     0.023     2.695     2.567
    91   7 N        1.845    -0.255    27.491     7.771
    92   6 C        3.818    -0.093    22.261     6.715
    93   6 C        2.897     0.044    27.018     8.522
    94   1 H        0.926     0.026     2.648     2.545
    95   6 C        2.967     0.029    27.348     8.578
    96   1 H        0.924     0.066     2.134     2.285
    97   1 H        0.924     0.089     1.890     2.150
    98   1 H        0.925     0.030     2.589     2.516
    99   6 C        2.925    -0.036    28.902     8.816
   100   6 C        2.928    -0.040    28.992     8.830
   101   6 C        2.920    -0.034    28.841     8.807
   102   1 H        0.926     0.019     2.745     2.591
   103   6 C        2.919    -0.036    28.907     8.817
   104   1 H        0.926     0.034     2.527     2.486
   105   6 C        2.919    -0.041    29.010     8.832
   106   1 H        0.926     0.028     2.609     2.526
   107   1 H        0.926     0.034     2.529     2.487
   108   1 H        0.926     0.031     2.569     2.507

 Mol. C6AA /au·bohr⁶  :     127105.907514
 Mol. C8AA /au·bohr⁸  :    3365827.934318
 Mol. α(0) /au        :        555.321761


Wiberg/Mayer (AO) data.
largest (>0.10) Wiberg bond orders for each atom

 ---------------------------------------------------------------------------
     #   Z sym  total        # sym  WBO       # sym  WBO       # sym  WBO
 ---------------------------------------------------------------------------
     1   7 N    3.398 --     6 C    1.389     2 C    1.313    19 Ir   0.436
     2   6 C    3.979 --     3 C    1.348     1 N    1.313    10 C    1.091
     3   6 C    3.988 --     4 C    1.484     2 C    1.348     9 H    0.962
                             6 C    0.106
     4   6 C    3.985 --     3 C    1.484     5 C    1.383    84 H    0.969
     5   6 C    3.979 --     6 C    1.460     4 C    1.383     8 H    0.968
     6   6 C    3.978 --     5 C    1.460     1 N    1.389     7 H    0.956
                             3 C    0.106
     7   1 H    0.997 --     6 C    0.956
     8   1 H    0.996 --     5 C    0.968
     9   1 H    0.997 --     3 C    0.962
    10   6 C    3.978 --    15 C    1.352    11 N    1.306     2 C    1.091
    11   7 N    3.390 --    12 C    1.389    10 C    1.306    19 Ir   0.408
    12   6 C    3.973 --    13 C    1.456    11 N    1.389    18 H    0.947
                            15 C    0.105
    13   6 C    3.982 --    12 C    1.456    14 C    1.385    17 H    0.969
    14   6 C    3.983 --    15 C    1.480    13 C    1.385    85 H    0.969
    15   6 C    3.989 --    14 C    1.480    10 C    1.352    16 H    0.962
                            12 C    0.105
    16   1 H    0.997 --    15 C    0.962
    17   1 H    0.997 --    13 C    0.969
    18   1 H    0.994 --    12 C    0.947
    19  77 Ir   5.151 --    63 B    0.879    42 B    0.855    21 B    0.716
                            86 C    0.588    20 H    0.528     1 N    0.436
                            11 N    0.408
    20   1 H    0.990 --    19 Ir   0.528    86 C    0.349
    21   5 B    3.268 --    33 O    1.109    22 O    1.090    19 Ir   0.716
    22   8 O    2.188 --    21 B    1.090    23 C    0.943
    23   6 C    3.944 --    24 C    0.997    28 C    0.990    22 O    0.943
                            32 C    0.941
    24   6 C    3.994 --    23 C    0.997    26 H    0.984    27 H    0.983
                            25 H    0.983
    25   1 H    0.997 --    24 C    0.983
    26   1 H    0.997 --    24 C    0.984
    27   1 H    0.997 --    24 C    0.983
    28   6 C    3.997 --    23 C    0.990    31 H    0.985    29 H    0.984
                            30 H    0.984
    29   1 H    0.997 --    28 C    0.984
    30   1 H    0.998 --    28 C    0.984
    31   1 H    0.999 --    28 C    0.985
    32   6 C    3.940 --    38 C    0.997    34 C    0.991    23 C    0.941
                            33 O    0.939
    33   8 O    2.201 --    21 B    1.109    32 C    0.939
    34   6 C    3.994 --    32 C    0.991    36 H    0.984    35 H    0.984
                            37 H    0.982
    35   1 H    0.998 --    34 C    0.984
    36   1 H    0.997 --    34 C    0.984
    37   1 H    0.997 --    34 C    0.982
    38   6 C    3.994 --    32 C    0.997    41 H    0.984    39 H    0.983
                            40 H    0.983
    39   1 H    0.998 --    38 C    0.983
    40   1 H    0.997 --    38 C    0.983
    41   1 H    0.997 --    38 C    0.984
    42   5 B    3.337 --    43 O    1.115    54 O    1.107    19 Ir   0.855
    43   8 O    2.226 --    42 B    1.115    44 C    0.936
    44   6 C    3.936 --    45 C    0.996    49 C    0.991    53 C    0.938
                            43 O    0.936
    45   6 C    3.992 --    44 C    0.996    48 H    0.983    46 H    0.982
                            47 H    0.982
    46   1 H    0.997 --    45 C    0.982
    47   1 H    0.996 --    45 C    0.982
    48   1 H    0.996 --    45 C    0.983
    49   6 C    3.994 --    44 C    0.991    50 H    0.983    51 H    0.983
                            52 H    0.979
    50   1 H    0.997 --    49 C    0.983
    51   1 H    0.997 --    49 C    0.983
    52   1 H    0.997 --    49 C    0.979
    53   6 C    3.937 --    55 C    0.996    59 C    0.992    44 C    0.938
                            54 O    0.934
    54   8 O    2.229 --    42 B    1.107    53 C    0.934
    55   6 C    3.993 --    53 C    0.996    58 H    0.983    57 H    0.983
                            56 H    0.983
    56   1 H    0.997 --    55 C    0.983
    57   1 H    0.997 --    55 C    0.983
    58   1 H    0.996 --    55 C    0.983
    59   6 C    3.993 --    53 C    0.992    62 H    0.983    61 H    0.983
                            60 H    0.981
    60   1 H    0.998 --    59 C    0.981
    61   1 H    0.996 --    59 C    0.983
    62   1 H    0.997 --    59 C    0.983
    63   5 B    3.364 --    64 O    1.122    75 O    1.113    19 Ir   0.879
    64   8 O    2.234 --    63 B    1.122    65 C    0.936
    65   6 C    3.935 --    70 C    0.997    66 C    0.991    74 C    0.938
                            64 O    0.936
    66   6 C    3.992 --    65 C    0.991    69 H    0.983    68 H    0.980
                            67 H    0.979
    67   1 H    0.997 --    66 C    0.979
    68   1 H    0.997 --    66 C    0.980
    69   1 H    0.996 --    66 C    0.983
    70   6 C    3.992 --    65 C    0.997    72 H    0.983    73 H    0.982
                            71 H    0.980
    71   1 H    0.996 --    70 C    0.980
    72   1 H    0.996 --    70 C    0.983
    73   1 H    0.997 --    70 C    0.982
    74   6 C    3.935 --    76 C    0.996    80 C    0.991    65 C    0.938
                            75 O    0.936
    75   8 O    2.233 --    63 B    1.113    74 C    0.936
    76   6 C    3.992 --    74 C    0.996    77 H    0.983    78 H    0.983
                            79 H    0.982
    77   1 H    0.996 --    76 C    0.983
    78   1 H    0.997 --    76 C    0.983
    79   1 H    0.997 --    76 C    0.982
    80   6 C    3.995 --    74 C    0.991    81 H    0.984    83 H    0.983
                            82 H    0.983
    81   1 H    0.998 --    80 C    0.984
    82   1 H    0.997 --    80 C    0.983
    83   1 H    0.996 --    80 C    0.983
    84   1 H    0.996 --     4 C    0.969
    85   1 H    0.996 --    14 C    0.969
    86   6 C    3.947 --    87 C    1.400    88 C    1.325    19 Ir   0.588
                            20 H    0.349    93 C    0.102
    87   6 C    3.991 --    89 C    1.423    86 C    1.400    90 H    0.962
    88   6 C    3.974 --    91 N    1.421    86 C    1.325    92 C    1.006
                            89 C    0.104
    89   6 C    3.988 --    93 C    1.430    87 C    1.423    94 H    0.969
                            88 C    0.104
    90   1 H    0.999 --    87 C    0.962
    91   7 N    3.060 --    88 C    1.421    93 C    1.419
    92   6 C    3.992 --    88 C    1.006    95 C    0.993    96 H    0.959
                            97 H    0.928
    93   6 C    3.979 --    89 C    1.430    91 N    1.419    98 H    0.963
                            86 C    0.102
    94   1 H    0.999 --    89 C    0.969
    95   6 C    3.986 --    99 C    1.414   100 C    1.403    92 C    0.993
                           105 C    0.110
    96   1 H    0.995 --    92 C    0.959
    97   1 H    0.992 --    92 C    0.928
    98   1 H    0.996 --    93 C    0.963
    99   6 C    3.992 --   101 C    1.442    95 C    1.414   102 H    0.965
                           103 C    0.109
   100   6 C    3.990 --   103 C    1.451    95 C    1.403   104 H    0.968
                           101 C    0.111
   101   6 C    3.992 --    99 C    1.442   105 C    1.441   106 H    0.971
                           100 C    0.111
   102   1 H    1.000 --    99 C    0.965
   103   6 C    3.991 --   100 C    1.451   105 C    1.431   107 H    0.971
                            99 C    0.109
   104   1 H    0.999 --   100 C    0.968
   105   6 C    3.991 --   101 C    1.441   103 C    1.431   108 H    0.971
                            95 C    0.110
   106   1 H    0.999 --   101 C    0.971
   107   1 H    0.998 --   103 C    0.971
   108   1 H    0.998 --   105 C    0.971
 ---------------------------------------------------------------------------

Topologies differ in total number of bonds
Writing topology from bond orders to xtbtopo.mol

molecular dipole:
                 x           y           z       tot (Debye)
 q only:        0.218       0.680      -1.437
   full:       -1.530       0.938      -2.181       7.179
molecular quadrupole (traceless):
                xx          xy          yy          xz          yz          zz
 q only:       20.361       3.107      -0.247       1.629      18.406     -20.114
  q+dip:       25.737       7.839       1.234      -3.808      25.896     -26.971
   full:       21.570       8.623       3.685      -6.555      21.858     -25.255


           -------------------------------------------------
          | TOTAL ENERGY             -154.759309802458 Eh   |
          | GRADIENT NORM               0.032622788929 Eh/α |
          | HOMO-LUMO GAP               0.881572890931 eV   |
           -------------------------------------------------

------------------------------------------------------------------------
 * finished run on 2021/10/08 at 07:20:49.322     
------------------------------------------------------------------------
 total:
 * wall-time:     0 d,  0 h,  0 min,  0.171 sec
 *  cpu-time:     0 d,  0 h,  0 min,  1.006 sec
 * ratio c/w:     5.866 speedup
 SCF:
 * wall-time:     0 d,  0 h,  0 min,  0.125 sec
 *  cpu-time:     0 d,  0 h,  0 min,  0.746 sec
 * ratio c/w:     5.977 speedup

