      -----------------------------------------------------------      
     |                   =====================                   |     
     |                           x T B                           |     
     |                   =====================                   |     
     |                         S. Grimme                         |     
     |          Mulliken Center for Theoretical Chemistry        |     
     |                    University of Bonn                     |     
      -----------------------------------------------------------      

   * xtb version 6.4.1 (1a32961) compiled by 'knkr256@seskscpg007.prim.scp' on 2021-10-19

   xtb is free software: you can redistribute it and/or modify it under
   the terms of the GNU Lesser General Public License as published by
   the Free Software Foundation, either version 3 of the License, or
   (at your option) any later version.
   
   xtb is distributed in the hope that it will be useful,
   but WITHOUT ANY WARRANTY; without even the implied warranty of
   MERCHANTABILITY or FITNESS FOR A PARTICULAR PURPOSE.  See the
   GNU Lesser General Public License for more details.
   
   Cite this work as:
   * C. Bannwarth, E. Caldeweyher, S. Ehlert, A. Hansen, P. Pracht,
     J. Seibert, S. Spicher, S. Grimme, WIREs Comput. Mol. Sci., 2020, 11,
     e01493. DOI: 10.1002/wcms.1493
   
   for GFN2-xTB:
   * C. Bannwarth, S. Ehlert and S. Grimme., J. Chem. Theory Comput., 2019,
     15, 1652-1671. DOI: 10.1021/acs.jctc.8b01176
   for GFN1-xTB:
   * S. Grimme, C. Bannwarth, P. Shushkov, J. Chem. Theory Comput., 2017,
     13, 1989-2009. DOI: 10.1021/acs.jctc.7b00118
   for GFN0-xTB:
   * P. Pracht, E. Caldeweyher, S. Ehlert, S. Grimme, ChemRxiv, 2019, preprint.
     DOI: 10.26434/chemrxiv.8326202.v1
   for GFN-FF:
   * S. Spicher and S. Grimme, Angew. Chem. Int. Ed., 2020, 59, 15665-15673.
     DOI: 10.1002/anie.202004239
   
   for ALPB and GBSA implicit solvation:
   * S. Ehlert, M. Stahn, S. Spicher, S. Grimme, J. Chem. Theory Comput.,
     2021, 17, 4250-4261. DOI: 10.1021/acs.jctc.1c00471
   
   for DFT-D4:
   * E. Caldeweyher, C. Bannwarth and S. Grimme, J. Chem. Phys., 2017,
     147, 034112. DOI: 10.1063/1.4993215
   * E. Caldeweyher, S. Ehlert, A. Hansen, H. Neugebauer, S. Spicher,
     C. Bannwarth and S. Grimme, J. Chem. Phys., 2019, 150, 154122.
     DOI: 10.1063/1.5090222
   * E. Caldeweyher, J.-M. Mewes, S. Ehlert and S. Grimme, Phys. Chem. Chem. Phys.
     2020, 22, 8499-8512. DOI: 10.1039/D0CP00502A
   
   for sTDA-xTB:
   * S. Grimme and C. Bannwarth, J. Chem. Phys., 2016, 145, 054103.
     DOI: 10.1063/1.4959605
   
   in the mass-spec context:
   * V. Asgeirsson, C. Bauer and S. Grimme, Chem. Sci., 2017, 8, 4879.
     DOI: 10.1039/c7sc00601b
   * J. Koopman and S. Grimme, ACS Omega 2019, 4, 12, 15120-15133.
     DOI: 10.1021/acsomega.9b02011
   
   for metadynamics refer to:
   * S. Grimme, J. Chem. Theory Comput., 2019, 155, 2847-2862
     DOI: 10.1021/acs.jctc.9b00143
   
   for SPH calculations refer to:
   * S. Spicher and S. Grimme, J. Chem. Theory Comput., 2021, 17, 1701-1714
     DOI: 10.1021/acs.jctc.0c01306
   
   with help from (in alphabetical order)
   P. Atkinson, C. Bannwarth, F. Bohle, G. Brandenburg, E. Caldeweyher
   M. Checinski, S. Dohm, S. Ehlert, S. Ehrlich, I. Gerasimov, J. Koopman
   C. Lavigne, S. Lehtola, F. März, M. Müller, F. Musil, H. Neugebauer
   J. Pisarek, C. Plett, P. Pracht, J. Seibert, P. Shushkov, S. Spicher
   M. Stahn, M. Steiner, T. Strunk, J. Stückrath, T. Rose, and J. Unsleber
   
 * started run on 2022/01/14 at 14:48:49.051     

           -------------------------------------------------
          |                Calculation Setup                |
           -------------------------------------------------

          program call               : xtb xtbopt.xyz --sp --alpb thf -P 6
          hostname                   : seskscpg007.prim.scp
          coordinate file            : xtbopt.xyz
          omp threads                :                     6
          number of atoms            :                   118
          number of electrons        :                   316
          charge                     :                     0
          spin                       :                   0.0
          first test random number   :      0.29276587529345

   ID    Z sym.   atoms
    1    7 N      1, 11, 89
    2    6 C      2-6, 10, 12-15, 23, 24, 28, 32, 34, 38, 44, 45, 49, 53, 55,
                  59, 65, 66, 70, 74, 76, 80, 86-88, 90, 91, 93-96, 100,
                  102-104, 106, 108, 109
    3    1 H      7-9, 16-18, 20, 25-27, 29-31, 35-37, 39-41, 46-48, 50-52,
                  56-58, 60-62, 67-69, 71-73, 77-79, 81-85, 92, 97, 101, 105,
                  107, 110-118
    4   77 Ir     19
    5    5 B      21, 42, 63
    6    8 O      22, 33, 43, 54, 64, 75, 98, 99

molecular fragmentation (1/2 indicates fragments):
111111111222222222222222222222222222222222222222222222222222222222222222
2222222222212222222222222222221222211122111111
# atoms in fragment 1/2:    20    98
 fragment masses (1/2) :      121.18      861.43
CMA distance (Bohr)    :  13.469
constraining FC (au)   :  0.0500

           -------------------------------------------------
          |                 G F N 2 - x T B                 |
           -------------------------------------------------

        Reference                      10.1021/acs.jctc.8b01176
      * Hamiltonian:
        H0-scaling (s, p, d)           1.850000    2.230000    2.230000
        zeta-weighting                 0.500000
      * Dispersion:
        s8                             2.700000
        a1                             0.520000
        a2                             5.000000
        s9                             5.000000
      * Repulsion:
        kExp                           1.500000    1.000000
        rExp                           1.000000
      * Coulomb:
        alpha                          2.000000
        third order                    shell-resolved
        anisotropic                    true
        a3                             3.000000
        a5                             4.000000
        cn-shift                       1.200000
        cn-exp                         4.000000
        max-rad                        5.000000

      * Solvation model:               ALPB
        Solvent                        thf
        Parameter file                 internal GFN2-xTB/ALPB
        Dielectric constant                7.6000E+00
        Reference state                gsolv [1 M gas/solution]
        Free energy shift                  5.3248E-03 Eh       3.3414E+00 kcal/mol
        Temperature                        2.9815E+02 K
        Density                            8.8300E-01 kg/L
        Solvent mass                       7.2106E+01 g/mol
        Interaction kernel             P16
        Born radius scaling (c1)           1.7311E+00
        Born radii integrator          GBOBC
        Born offset                        0.0000E+00 a0       0.0000E+00 AA
        H-bond correction              true
        Ion screening                  false
        Surface tension                    1.0000E-05 Eh       1.5569E+01 dyn/cm
        Grid points                               230 per atom
q/qsh data taken from xtbrestart
CAMM data taken from xtbrestart

          ...................................................
          :                      SETUP                      :
          :.................................................:
          :  # basis functions                 301          :
          :  # atomic orbitals                 300          :
          :  # shells                          178          :
          :  # electrons                       316          :
          :  max. iterations                   250          :
          :  Hamiltonian                  GFN2-xTB          :
          :  restarted?                       true          :
          :  GBSA solvation                   true          :
          :  PC potential                    false          :
          :  electronic temp.          300.0000000     K    :
          :  accuracy                    1.0000000          :
          :  -> integral cutoff          0.2500000E+02      :
          :  -> integral neglect         0.1000000E-07      :
          :  -> SCF convergence          0.1000000E-05 Eh   :
          :  -> wf. convergence          0.1000000E-03 e    :
          :  Broyden damping             0.4000000          :
          ...................................................

 iter      E             dE          RMSdq      gap      omega  full diag
   1   -175.8774566 -0.175877E+03  0.311E-05    0.89       0.0  T
   2   -175.8774566  0.102261E-09  0.426E-05    0.89     216.3  T
   3   -175.8774566 -0.137277E-09  0.168E-05    0.89     547.9  T

   *** convergence criteria satisfied after 3 iterations ***

         #    Occupation            Energy/Eh            Energy/eV
      -------------------------------------------------------------
         1        2.0000           -0.7654337             -20.8285
       ...           ...                  ...                  ...
       152        2.0000           -0.3644684              -9.9177
       153        2.0000           -0.3615287              -9.8377
       154        2.0000           -0.3362013              -9.1485
       155        2.0000           -0.3264483              -8.8831
       156        2.0000           -0.3189660              -8.6795
       157        2.0000           -0.3130892              -8.5196
       158        2.0000           -0.3080840              -8.3834 (HOMO)
       159                         -0.2752715              -7.4905 (LUMO)
       160                         -0.2642219              -7.1898
       161                         -0.2528683              -6.8809
       162                         -0.2460562              -6.6955
       163                         -0.2448599              -6.6630
       ...                                ...                  ...
       300                          3.8835344             105.6764
      -------------------------------------------------------------
                  HL-Gap            0.0328124 Eh            0.8929 eV
             Fermi-level           -0.2916753 Eh           -7.9369 eV

 SCC (total)                   0 d,  0 h,  0 min,  0.119 sec
 SCC setup                      ...        0 min,  0.003 sec (  2.396%)
 Dispersion                     ...        0 min,  0.004 sec (  3.112%)
 classical contributions        ...        0 min,  0.000 sec (  0.170%)
 integral evaluation            ...        0 min,  0.013 sec ( 11.249%)
 iterations                     ...        0 min,  0.045 sec ( 37.784%)
 molecular gradient             ...        0 min,  0.053 sec ( 44.457%)
 printout                       ...        0 min,  0.001 sec (  0.783%)

         :::::::::::::::::::::::::::::::::::::::::::::::::::::
         ::                     SUMMARY                     ::
         :::::::::::::::::::::::::::::::::::::::::::::::::::::
         :: total energy            -173.567509689196 Eh    ::
         :: total w/o Gsasa/hb      -173.517859660811 Eh    ::
         :: gradient norm              0.035929108552 Eh/a0 ::
         :: HOMO-LUMO gap              0.892871954458 eV    ::
         ::.................................................::
         :: SCC energy              -175.877456619734 Eh    ::
         :: -> isotropic ES            0.286037381569 Eh    ::
         :: -> anisotropic ES          0.010153437880 Eh    ::
         :: -> anisotropic XC          0.055904601969 Eh    ::
         :: -> dispersion             -0.162946219847 Eh    ::
         :: -> Gsolv                  -0.063850131936 Eh    ::
         ::    -> Gelec               -0.014200103551 Eh    ::
         ::    -> Gsasa               -0.051873772501 Eh    ::
         ::    -> Ghb                 -0.003101071328 Eh    ::
         ::    -> Gshift               0.005324815444 Eh    ::
         :: repulsion energy           2.301751234472 Eh    ::
         :: add. restraining           0.000000000000 Eh    ::
         :: total charge               0.000000000326 e     ::
         :::::::::::::::::::::::::::::::::::::::::::::::::::::

           -------------------------------------------------
          |                Property Printout                |
           -------------------------------------------------

    * Orbital Energies and Occupations

         #    Occupation            Energy/Eh            Energy/eV
      -------------------------------------------------------------
         1        2.0000           -0.7654337             -20.8285
       ...           ...                  ...                  ...
       146        2.0000           -0.4034726             -10.9790
       147        2.0000           -0.3903700             -10.6225
       148        2.0000           -0.3848749             -10.4730
       149        2.0000           -0.3839023             -10.4465
       150        2.0000           -0.3821046             -10.3976
       151        2.0000           -0.3816596             -10.3855
       152        2.0000           -0.3644684              -9.9177
       153        2.0000           -0.3615287              -9.8377
       154        2.0000           -0.3362013              -9.1485
       155        2.0000           -0.3264483              -8.8831
       156        2.0000           -0.3189660              -8.6795
       157        2.0000           -0.3130892              -8.5196
       158        2.0000           -0.3080840              -8.3834 (HOMO)
       159                         -0.2752715              -7.4905 (LUMO)
       160                         -0.2642219              -7.1898
       161                         -0.2528683              -6.8809
       162                         -0.2460562              -6.6955
       163                         -0.2448599              -6.6630
       164                         -0.2308916              -6.2829
       165                         -0.2298864              -6.2555
       166                         -0.2105324              -5.7289
       167                         -0.1951870              -5.3113
       168                         -0.1887694              -5.1367
       169                         -0.1618664              -4.4046
       ...                                ...                  ...
       300                          3.8835344             105.6764
      -------------------------------------------------------------
                  HL-Gap            0.0328124 Eh            0.8929 eV
             Fermi-level           -0.2916753 Eh           -7.9369 eV

     #   Z          covCN         q      C6AA      α(0)
     1   7 N        1.842    -0.248    27.317     7.746
     2   6 C        2.956     0.094    25.914     8.350
     3   6 C        2.917    -0.053    29.319     8.879
     4   6 C        2.927    -0.017    28.432     8.744
     5   6 C        2.914    -0.045    29.114     8.848
     6   6 C        2.900     0.056    26.734     8.478
     7   1 H        0.925     0.045     2.383     2.414
     8   1 H        0.926     0.035     2.520     2.482
     9   1 H        0.926     0.038     2.479     2.462
    10   6 C        2.952     0.225    23.288     7.915
    11   7 N        2.570    -0.149    24.237     7.312
    12   6 C        2.907     0.040    27.100     8.536
    13   6 C        2.914    -0.043    29.078     8.843
    14   6 C        2.930    -0.021    28.540     8.761
    15   6 C        2.913    -0.059    29.479     8.903
    16   1 H        0.926     0.050     2.325     2.385
    17   1 H        0.926     0.079     1.988     2.205
    18   1 H        0.926     0.093     1.853     2.129
    19  77 Ir       5.422    -0.102   381.817    36.135
    20   1 H        0.977     0.054     2.261     2.350
    21   5 B        2.643     0.387    16.155     6.779
    22   8 O        1.638    -0.400    20.864     6.166
    23   6 C        3.837     0.131    18.439     6.109
    24   6 C        3.755    -0.121    22.878     6.820
    25   1 H        0.925     0.049     2.336     2.390
    26   1 H        0.925     0.043     2.409     2.427
    27   1 H        0.925     0.058     2.220     2.330
    28   6 C        3.755    -0.119    22.840     6.814
    29   1 H        0.925     0.045     2.380     2.413
    30   1 H        0.925     0.063     2.160     2.298
    31   1 H        0.925     0.026     2.640     2.541
    32   6 C        3.843     0.129    18.458     6.111
    33   8 O        1.637    -0.399    20.835     6.161
    34   6 C        3.755    -0.123    22.907     6.824
    35   1 H        0.925     0.051     2.308     2.376
    36   1 H        0.925     0.046     2.377     2.411
    37   1 H        0.925     0.050     2.318     2.381
    38   6 C        3.755    -0.122    22.890     6.822
    39   1 H        0.925     0.049     2.330     2.387
    40   1 H        0.925     0.054     2.273     2.358
    41   1 H        0.925     0.046     2.373     2.409
    42   5 B        2.655     0.419    15.732     6.681
    43   8 O        1.637    -0.363    20.146     6.059
    44   6 C        3.845     0.127    18.494     6.117
    45   6 C        3.755    -0.132    23.094     6.852
    46   1 H        0.925     0.060     2.204     2.322
    47   1 H        0.925     0.062     2.170     2.304
    48   1 H        0.925     0.057     2.239     2.340
    49   6 C        3.755    -0.129    23.033     6.843
    50   1 H        0.925     0.057     2.237     2.339
    51   1 H        0.925     0.051     2.308     2.376
    52   1 H        0.925     0.058     2.219     2.330
    53   6 C        3.841     0.126    18.511     6.121
    54   8 O        1.638    -0.367    20.221     6.070
    55   6 C        3.755    -0.130    23.058     6.847
    56   1 H        0.925     0.059     2.208     2.324
    57   1 H        0.925     0.059     2.207     2.323
    58   1 H        0.925     0.056     2.252     2.347
    59   6 C        3.755    -0.131    23.067     6.848
    60   1 H        0.925     0.048     2.343     2.394
    61   1 H        0.925     0.060     2.198     2.318
    62   1 H        0.925     0.057     2.234     2.337
    63   5 B        2.625     0.391    16.196     6.804
    64   8 O        1.638    -0.376    20.405     6.098
    65   6 C        3.830     0.124    18.540     6.126
    66   6 C        3.755    -0.133    23.108     6.854
    67   1 H        0.925     0.061     2.182     2.310
    68   1 H        0.925     0.056     2.246     2.343
    69   1 H        0.925     0.051     2.303     2.373
    70   6 C        3.755    -0.129    23.038     6.844
    71   1 H        0.925     0.060     2.198     2.318
    72   1 H        0.925     0.051     2.308     2.376
    73   1 H        0.925     0.049     2.328     2.386
    74   6 C        3.829     0.126    18.512     6.122
    75   8 O        1.637    -0.378    20.436     6.102
    76   6 C        3.755    -0.127    22.984     6.836
    77   1 H        0.925     0.052     2.298     2.371
    78   1 H        0.925     0.056     2.249     2.345
    79   1 H        0.925     0.057     2.234     2.337
    80   6 C        3.755    -0.124    22.937     6.829
    81   1 H        0.925     0.040     2.444     2.445
    82   1 H        0.925     0.051     2.301     2.372
    83   1 H        0.925     0.054     2.268     2.355
    84   1 H        0.926     0.038     2.481     2.463
    85   1 H        0.926     0.073     2.054     2.241
    86   6 C        2.823    -0.052    29.286     8.867
    87   6 C        3.022     0.046    26.939     8.514
    88   6 C        2.928    -0.037    28.924     8.820
    89   7 N        2.786    -0.100    23.193     7.153
    90   6 C        3.061    -0.014    28.302     8.724
    91   6 C        2.919    -0.039    28.963     8.825
    92   1 H        0.926     0.059     2.213     2.326
    93   6 C        2.678     0.412    20.057     7.329
    94   6 C        3.044     0.053    26.778     8.487
    95   6 C        2.913    -0.045    29.105     8.847
    96   6 C        3.051    -0.009    28.187     8.707
    97   1 H        0.926     0.046     2.376     2.410
    98   8 O        0.857    -0.436    22.416     6.348
    99   8 O        1.804    -0.263    18.342     5.783
   100   6 C        2.911    -0.048    29.187     8.859
   101   1 H        0.926     0.045     2.380     2.412
   102   6 C        2.914    -0.037    28.909     8.817
   103   6 C        3.856    -0.016    20.827     6.491
   104   6 C        2.925    -0.036    28.891     8.815
   105   1 H        0.926     0.043     2.414     2.430
   106   6 C        2.920    -0.040    28.987     8.829
   107   1 H        0.926     0.051     2.313     2.378
   108   6 C        3.757    -0.110    22.660     6.787
   109   6 C        3.757    -0.111    22.680     6.790
   110   1 H        0.924     0.032     2.564     2.504
   111   1 H        0.926     0.048     2.349     2.397
   112   1 H        0.926     0.049     2.330     2.387
   113   1 H        0.925     0.051     2.305     2.374
   114   1 H        0.925     0.033     2.545     2.495
   115   1 H        0.925     0.048     2.343     2.394
   116   1 H        0.925     0.033     2.540     2.492
   117   1 H        0.925     0.046     2.366     2.405
   118   1 H        0.925     0.055     2.255     2.349

 Mol. C6AA /au·bohr⁶  :     151916.826612
 Mol. C8AA /au·bohr⁸  :    3978073.289142
 Mol. α(0) /au        :        604.887133


Wiberg/Mayer (AO) data.
largest (>0.10) Wiberg bond orders for each atom

 ---------------------------------------------------------------------------
     #   Z sym  total        # sym  WBO       # sym  WBO       # sym  WBO
 ---------------------------------------------------------------------------
     1   7 N    3.067 --     6 C    1.442     2 C    1.403     4 C    0.100
     2   6 C    3.975 --     1 N    1.403     3 C    1.398   103 C    0.995
                             5 C    0.112
     3   6 C    3.991 --     4 C    1.447     2 C    1.398     9 H    0.968
                             6 C    0.114
     4   6 C    3.990 --     3 C    1.447     5 C    1.439    84 H    0.970
                             1 N    0.100
     5   6 C    3.991 --     4 C    1.439     6 C    1.423     8 H    0.970
                             2 C    0.112
     6   6 C    3.981 --     1 N    1.442     5 C    1.423     7 H    0.958
                             3 C    0.114
     7   1 H    0.998 --     6 C    0.958
     8   1 H    0.998 --     5 C    0.970
     9   1 H    0.999 --     3 C    0.968
    10   6 C    3.918 --    15 C    1.399    11 N    1.358    99 O    0.955
    11   7 N    3.366 --    10 C    1.358    12 C    1.354    19 Ir   0.374
    12   6 C    3.965 --    13 C    1.457    11 N    1.354    18 H    0.951
                            15 C    0.104
    13   6 C    3.984 --    12 C    1.457    14 C    1.416    17 H    0.965
    14   6 C    3.977 --    15 C    1.425    13 C    1.416    85 H    0.967
    15   6 C    3.987 --    14 C    1.425    10 C    1.399    16 H    0.967
                            12 C    0.104
    16   1 H    0.997 --    15 C    0.967
    17   1 H    0.993 --    13 C    0.965
    18   1 H    0.991 --    12 C    0.951
    19  77 Ir   4.747 --    42 B    0.913    63 B    0.866    21 B    0.751
                            86 C    0.559    20 H    0.521    11 N    0.374
                            99 O    0.110
    20   1 H    0.995 --    19 Ir   0.521    86 C    0.366
    21   5 B    3.290 --    33 O    1.116    22 O    1.108    19 Ir   0.751
    22   8 O    2.210 --    21 B    1.108    23 C    0.933
    23   6 C    3.939 --    24 C    0.997    28 C    0.992    32 C    0.941
                            22 O    0.933
    24   6 C    3.993 --    23 C    0.997    26 H    0.983    25 H    0.983
                            27 H    0.979
    25   1 H    0.998 --    24 C    0.983
    26   1 H    0.997 --    24 C    0.983
    27   1 H    0.996 --    24 C    0.979
    28   6 C    3.994 --    23 C    0.992    31 H    0.985    29 H    0.983
                            30 H    0.972
    29   1 H    0.997 --    28 C    0.983
    30   1 H    0.996 --    28 C    0.972
    31   1 H    0.999 --    28 C    0.985
    32   6 C    3.939 --    38 C    0.997    34 C    0.991    23 C    0.941
                            33 O    0.938
    33   8 O    2.206 --    21 B    1.116    32 C    0.938
    34   6 C    3.994 --    32 C    0.991    36 H    0.984    37 H    0.983
                            35 H    0.981
    35   1 H    0.997 --    34 C    0.981
    36   1 H    0.997 --    34 C    0.984
    37   1 H    0.997 --    34 C    0.983
    38   6 C    3.994 --    32 C    0.997    41 H    0.984    39 H    0.983
                            40 H    0.983
    39   1 H    0.997 --    38 C    0.983
    40   1 H    0.997 --    38 C    0.983
    41   1 H    0.997 --    38 C    0.984
    42   5 B    3.388 --    43 O    1.142    54 O    1.124    19 Ir   0.913
    43   8 O    2.254 --    42 B    1.142    44 C    0.924
    44   6 C    3.930 --    45 C    0.998    49 C    0.992    53 C    0.938
                            43 O    0.924
    45   6 C    3.990 --    44 C    0.998    48 H    0.982    46 H    0.981
                            47 H    0.981
    46   1 H    0.996 --    45 C    0.981
    47   1 H    0.996 --    45 C    0.981
    48   1 H    0.995 --    45 C    0.982
    49   6 C    3.992 --    44 C    0.992    50 H    0.982    51 H    0.982
                            52 H    0.979
    50   1 H    0.996 --    49 C    0.982
    51   1 H    0.997 --    49 C    0.982
    52   1 H    0.997 --    49 C    0.979
    53   6 C    3.932 --    55 C    0.997    59 C    0.993    44 C    0.938
                            54 O    0.924
    54   8 O    2.249 --    42 B    1.124    53 C    0.924
    55   6 C    3.990 --    53 C    0.997    57 H    0.982    58 H    0.982
                            56 H    0.982
    56   1 H    0.996 --    55 C    0.982
    57   1 H    0.996 --    55 C    0.982
    58   1 H    0.995 --    55 C    0.982
    59   6 C    3.992 --    53 C    0.993    62 H    0.982    61 H    0.982
                            60 H    0.982
    60   1 H    0.998 --    59 C    0.982
    61   1 H    0.995 --    59 C    0.982
    62   1 H    0.996 --    59 C    0.982
    63   5 B    3.368 --    75 O    1.126    64 O    1.111    19 Ir   0.866
    64   8 O    2.234 --    63 B    1.111    65 C    0.940
    65   6 C    3.937 --    70 C    0.996    66 C    0.991    64 O    0.940
                            74 C    0.937
    66   6 C    3.992 --    65 C    0.991    69 H    0.983    68 H    0.982
                            67 H    0.978
    67   1 H    0.996 --    66 C    0.978
    68   1 H    0.997 --    66 C    0.982
    69   1 H    0.996 --    66 C    0.983
    70   6 C    3.992 --    65 C    0.996    72 H    0.983    73 H    0.983
                            71 H    0.982
    71   1 H    0.996 --    70 C    0.982
    72   1 H    0.996 --    70 C    0.983
    73   1 H    0.997 --    70 C    0.983
    74   6 C    3.935 --    76 C    0.996    80 C    0.992    65 C    0.937
                            75 O    0.935
    75   8 O    2.237 --    63 B    1.126    74 C    0.935
    76   6 C    3.992 --    74 C    0.996    77 H    0.983    78 H    0.982
                            79 H    0.982
    77   1 H    0.996 --    76 C    0.983
    78   1 H    0.997 --    76 C    0.982
    79   1 H    0.997 --    76 C    0.982
    80   6 C    3.995 --    74 C    0.992    81 H    0.984    83 H    0.983
                            82 H    0.983
    81   1 H    0.998 --    80 C    0.984
    82   1 H    0.997 --    80 C    0.983
    83   1 H    0.996 --    80 C    0.983
    84   1 H    0.998 --     4 C    0.970
    85   1 H    0.994 --    14 C    0.967
    86   6 C    3.933 --    88 C    1.379    87 C    1.359    19 Ir   0.559
                            20 H    0.366
    87   6 C    3.933 --    86 C    1.359    90 C    1.285    89 N    1.023
    88   6 C    3.966 --    91 C    1.425    86 C    1.379    92 H    0.955
    89   7 N    3.557 --    93 C    1.154    94 C    1.049    87 C    1.023
                            98 O    0.126
    90   6 C    3.981 --    95 C    1.372    87 C    1.285    96 C    1.115
    91   6 C    3.980 --    95 C    1.445    88 C    1.425    97 H    0.968
    92   1 H    0.996 --    88 C    0.955
    93   6 C    3.934 --    98 O    1.681    89 N    1.154    99 O    0.978
    94   6 C    3.947 --   100 C    1.392    96 C    1.290    89 N    1.049
    95   6 C    3.973 --    91 C    1.445    90 C    1.372   101 H    0.967
    96   6 C    3.983 --   102 C    1.375    94 C    1.290    90 C    1.115
    97   1 H    0.997 --    91 C    0.968
    98   8 O    2.011 --    93 C    1.681    89 N    0.126
    99   8 O    2.315 --    93 C    0.978    10 C    0.955    19 Ir   0.110
   100   6 C    3.987 --   104 C    1.446    94 C    1.392   105 H    0.965
                           102 C    0.106
   101   1 H    0.995 --    95 C    0.967
   102   6 C    3.978 --   106 C    1.460    96 C    1.375   107 H    0.967
                           100 C    0.106
   103   6 C    3.995 --   109 C    0.997     2 C    0.995   108 C    0.993
                           110 H    0.969
   104   6 C    3.969 --   100 C    1.446   106 C    1.416   111 H    0.970
   105   1 H    0.998 --   100 C    0.965
   106   6 C    3.987 --   102 C    1.460   104 C    1.416   112 H    0.970
   107   1 H    0.997 --   102 C    0.967
   108   6 C    3.994 --   103 C    0.993   114 H    0.988   113 H    0.984
                           115 H    0.984
   109   6 C    3.994 --   103 C    0.997   116 H    0.988   117 H    0.985
                           118 H    0.983
   110   1 H    0.999 --   103 C    0.969
   111   1 H    0.997 --   104 C    0.970
   112   1 H    0.997 --   106 C    0.970
   113   1 H    0.997 --   108 C    0.984
   114   1 H    0.999 --   108 C    0.988
   115   1 H    0.997 --   108 C    0.984
   116   1 H    0.999 --   109 C    0.988
   117   1 H    0.997 --   109 C    0.985
   118   1 H    0.997 --   109 C    0.983
 ---------------------------------------------------------------------------

Topologies differ in total number of bonds
Writing topology from bond orders to xtbtopo.mol

molecular dipole:
                 x           y           z       tot (Debye)
 q only:        0.679       3.213       1.029
   full:       -0.772       2.461       0.722       6.807
molecular quadrupole (traceless):
                xx          xy          yy          xz          yz          zz
 q only:       19.674      -8.057     -27.817      -0.633       2.843       8.143
  q+dip:       24.916       3.442     -28.078      -0.794       5.466       3.162
   full:       22.526      -1.172     -25.984      -2.947       5.500       3.458


           -------------------------------------------------
          | TOTAL ENERGY             -173.567509689196 Eh   |
          | GRADIENT NORM               0.035929108552 Eh/α |
          | HOMO-LUMO GAP               0.892871954458 eV   |
           -------------------------------------------------

------------------------------------------------------------------------
 * finished run on 2022/01/14 at 14:48:49.208     
------------------------------------------------------------------------
 total:
 * wall-time:     0 d,  0 h,  0 min,  0.157 sec
 *  cpu-time:     0 d,  0 h,  0 min,  0.915 sec
 * ratio c/w:     5.839 speedup
 SCF:
 * wall-time:     0 d,  0 h,  0 min,  0.120 sec
 *  cpu-time:     0 d,  0 h,  0 min,  0.717 sec
 * ratio c/w:     5.961 speedup

