118
 energy: -173.567509689104 gnorm: 0.000454017804 xtb: 6.4.1 (1a32961)
N        -3.86530607613341   -0.71364039310584   -3.36728607199642
C        -5.00627387337380   -0.97174438455330   -3.99847386894180
C        -5.70234076865155   -2.15867691886700   -3.78893906119480
C        -5.19206330611570   -3.09010844850069   -2.89920994033558
C        -3.99993754653681   -2.81286977413250   -2.24808723407954
C        -3.37558960508683   -1.60561774218173   -2.52323295123871
H        -2.43667234577698   -1.33715984424264   -2.05422038689012
H        -3.56429917295464   -3.50984792915465   -1.54818307082024
H        -6.62625293716241   -2.34778464147083   -4.31493037113381
C        -2.39532505024832   -0.93844493189886    0.92498786411358
N        -1.56426551147787    0.03888263316976    1.25431677000622
C        -2.08831910607068    1.23632782832277    1.51691466623418
C        -3.44804573253850    1.47694983201877    1.47876968189103
C        -4.31149965736708    0.43549088667451    1.16070399929135
C        -3.77166613005834   -0.81020244899147    0.87540776862572
H        -4.38559394494794   -1.65652638222188    0.61009201511098
H        -3.82946470534460    2.46015148993706    1.70052387932968
H        -1.36493459032791    1.99505050669319    1.77212777918555
Ir        0.42149999999646   -0.81650000000040    0.91329999999971
H         0.87259999999859   -2.23030000000259    1.54049999999742
B         0.32493855283469    0.40937712723653   -0.74358619448074
O        -0.50642056898706    0.04482493111800   -1.77792958235569
C        -0.54787151802491    1.08771013094291   -2.76444510596782
C        -0.52427425052619    0.46891798707541   -4.15889722305146
H         0.30655839716642   -0.22140695653483   -4.26354472631504
H        -0.44897661719285    1.24827892520656   -4.91296859435071
H        -1.44901848670888   -0.08310699506972   -4.30954834168101
C        -1.86975115949770    1.84103135760420   -2.57152558724927
H        -1.96271043117264    2.64862878711515   -3.29171792885457
H        -2.68991071478580    1.14044509622557   -2.71619531046223
H        -1.92818168475004    2.24055358734779   -1.56060724412752
C         0.70231186786750    1.95448509288431   -2.39769809007923
O         0.92694453525192    1.61379589445280   -1.02260251670962
C         1.96131125727551    1.53274058376965   -3.16438501078412
H         2.14160871408751    0.47385916834871   -2.99791177871390
H         1.86972944488679    1.74370395069526   -4.22583476330738
H         2.81162515183816    2.07950767994305   -2.76355422676894
C         0.50767150125932    3.46365097483177   -2.53184028628600
H        -0.26679019082422    3.82244805252586   -1.86124983277940
H         1.43843567783987    3.96482489410514   -2.27688606460119
H         0.24517886822410    3.71468243200709   -3.55620786449773
B         1.48067136387555    0.79454061525473    1.62566920294786
O         2.82882770079368    0.97765909447320    1.69937041936349
C         3.10951561932246    2.32867061275119    2.11005355964315
C         4.28964085883270    2.33498013908325    3.07910168586183
H         4.12039833683015    1.65365085777687    3.90570336465464
H         5.18325404178251    2.01066182389989    2.55289263110919
H         4.45243650858394    3.33890821351630    3.46078213051565
C         3.47863415159118    3.09641348046867    0.83646911642970
H         3.67509763575543    4.14345409649819    1.04419112849100
H         4.37205599491485    2.64765596165157    0.40906156014351
H         2.67302092121842    2.99013125181492    0.11453649361352
C         1.74325873008934    2.79100199155949    2.72917733348880
O         0.80641492308141    1.85777000046253    2.16293395282527
C         1.31818752070350    4.20950760928306    2.35707236824823
H         1.17440347702384    4.29509661517411    1.28534659859206
H         0.37675753473848    4.43898988481474    2.84965915320114
H         2.06739982364526    4.92407088879327    2.68534740394394
C         1.68092623145622    2.62027282184946    4.25131184149164
H         1.92784235185986    1.59727232316813    4.51976927374940
H         2.35485530351148    3.30988048967392    4.74935800352590
H         0.66425626681098    2.81645735265566    4.58275230029162
B         2.27819999999502   -1.33090000003292    0.17409999999325
O         3.20398925008530   -2.02227966806312    0.92600618657102
C         4.46704004598834   -2.07283622790648    0.25330666203347
C         5.38262673854638   -1.06749991476904    0.96010812167839
H         4.89529177620966   -0.09769192192902    0.97459277651086
H         5.51447277119419   -1.39009997008754    1.98960881011749
H         6.35416662362701   -1.00653376051536    0.48011413049045
C         5.05748856866832   -3.47656587517968    0.39799385026465
H         5.23716636898221   -3.67088335974527    1.45213297666889
H         5.99897939811645   -3.54600214090534   -0.13948287342372
H         4.37246171588629   -4.23370496898834    0.03103486996874
C         4.09828631324706   -1.65492093428938   -1.21612181426736
O         2.79121223530655   -1.07630051682352   -1.07330434992675
C         5.03301564488404   -0.61791142745979   -1.83747904612911
H         6.04922487425451   -1.00002603807853   -1.87480083368672
H         4.70126804482595   -0.40246148003443   -2.84979267100464
H         5.00485767657670    0.30454772717992   -1.26824702816681
C         3.96391563404746   -2.84645128597215   -2.17387721929250
H         3.24517288468683   -3.56299636794183   -1.78524502316130
H         3.59204889330398   -2.48528555527051   -3.12974227496611
H         4.92188937631703   -3.33307580455714   -2.32888441600218
H        -5.71439495570087   -4.01920255032639   -2.71887342505940
H        -5.37871028636923    0.58386424850066    1.12982119604491
C         0.23589999999877   -1.68140000014490    2.96029999988516
C        -0.93488142527903   -2.27141055052093    3.43049348510675
C         1.13852629585221   -1.24127840805597    3.92573056738246
N        -1.95234694057010   -2.98028045892284    2.73328315180114
C        -1.21167385500012   -2.36322463257770    4.81144663408645
C         0.85157357316060   -1.28402517014880    5.28396226212691
H         2.09312352557785   -0.87004443374152    3.58745343272888
C        -2.11708744909115   -3.19055252129100    1.39499270889560
C        -2.81987041576560   -3.54103504004632    3.68689673478763
C        -0.32942028474953   -1.83844462118460    5.74392388179910
C        -2.42143043423674   -3.13079340081944    4.97055708056142
H         1.57236989249395   -0.90494635144378    5.99311734423981
O        -2.56956797863870   -4.19742867555796    0.90920566805844
O        -1.77227524189821   -2.13127035878088    0.59043281359954
C        -3.95345111025036   -4.30873459964954    3.49261445782694
H        -0.54693649885016   -1.90408067100887    6.79829020743831
C        -3.16905763355277   -3.50018651663588    6.07980065700361
C        -5.50918361473171    0.08949460929003   -4.94539691932908
C        -4.68683571140354   -4.66822279981741    4.61197655731095
H        -4.25153057306339   -4.62690564564016    2.50629168770737
C        -4.30160324861811   -4.27002028450430    5.88735011952999
H        -2.87151387922534   -3.18695515163452    7.06807823399930
C        -5.89425295923222    1.34469587411813   -4.15767188586208
C        -4.43607181031278    0.42235528291647   -5.98334263413400
H        -6.39770189324789   -0.29464791851487   -5.45793508101470
H        -5.57380209834288   -5.27036287417751    4.48674917897980
H        -4.89713380654196   -4.56810352541449    6.73668856235420
H        -5.02729545933334    1.71988068088947   -3.62068169572605
H        -6.68023545747079    1.12062139200952   -3.43936886780286
H        -6.25128285309478    2.11658273010905   -4.83514687891146
H        -4.17712242566417   -0.46106062444034   -6.56322062831835
H        -4.79612277431795    1.19157574810643   -6.66230891047785
H        -3.54258699762158    0.78163803333353   -5.48078958317926
