107
 energy: -152.593376432251 gnorm: 0.003635629662 xtb: 6.4.0 (f63f532)
N        -0.96509999999999   -2.11530000000000   -0.24090000000001
C        -2.24700000000000   -1.69840000000000   -0.36220000000002
C        -3.14039999999999   -2.36820000000000   -1.21199999999999
C        -2.70220000000002   -3.47560000000001   -1.93050000000001
C        -1.37780000000001   -3.89880000000000   -1.78759999999998
C        -0.54289999999999   -3.18670000000002   -0.93510000000002
H         0.49810000000000   -3.45630000000000   -0.78940000000000
H        -0.99570000000000   -4.76030000000001   -2.32770000000001
H        -4.16500000000000   -2.02890000000000   -1.31830000000000
C        -2.62130000000001   -0.50950000000000    0.44100000000000
N        -1.62600000000000    0.07330000000000    1.16020000000000
C        -1.89680000000000    1.15240000000000    1.91689999999999
C        -3.17230000000000    1.70330000000000    1.99650000000000
C        -4.20510000000000    1.11740000000000    1.26270000000001
C        -3.92610000000000    0.00250000000000    0.47820000000000
H        -4.71960000000000   -0.46420000000000   -0.09520000000000
H        -3.34630000000000    2.57510000000000    2.62070000000000
H        -1.04450000000000    1.57419999999999    2.43690000000000
Ir        0.42150000000000   -0.81650000000000    0.91330000000000
H         0.87260000000000   -2.23030000000000    1.54050000000000
B         0.50670000000000    0.41560000000000   -0.81540000000001
O         0.19500000000000   -0.04700000000001   -2.09150000000000
C         0.00650000000001    1.10040000000001   -2.95430000000002
C         0.49019999999999    0.74740000000000   -4.35780000000000
H         1.51610000000001    0.37380000000000   -4.33700000000000
H         0.44730000000000    1.62240000000003   -5.01670000000000
H        -0.14739999999999   -0.03389999999999   -4.78430000000000
C        -1.50120000000000    1.39560000000000   -2.96670000000000
H        -1.75370000000000    2.21460000000002   -3.64850000000001
H        -2.03199999999999    0.49449999999999   -3.28930000000000
H        -1.85170000000000    1.65210000000000   -1.96220000000000
C         0.84229999999998    2.20670000000001   -2.22040000000000
O         0.75200000000000    1.78259999999996   -0.83689999999997
C         2.32930000000001    2.18620000000000   -2.59900000000001
H         2.74130000000001    1.18499999999998   -2.45750000000000
H         2.48870000000000    2.51300000000000   -3.63179999999999
H         2.87200000000000    2.86270000000001   -1.93200000000001
C         0.28440000000000    3.62290000000002   -2.33660000000001
H        -0.72650000000000    3.69040000000000   -1.92910000000000
H         0.92130000000000    4.31480000000000   -1.77610000000000
H         0.26430000000000    3.94810000000000   -3.38320000000000
B         1.56300000000000    0.60960000000000    1.84840000000000
O         2.92780000000000    0.55230000000001    2.15020000000000
C         3.36329999999999    1.88660000000000    2.50259999999998
C         4.53140000000001    1.78589999999999    3.47740000000001
H         4.27910000000001    1.16090000000001    4.33689999999998
H         5.39390000000000    1.33790000000000    2.97340000000000
H         4.82390000000001    2.77870000000001    3.83820000000000
C         3.79699999999999    2.56849999999999    1.19670000000001
H         4.20020000000000    3.57090000000000    1.37680000000000
H         4.56740000000000    1.95560000000000    0.72110000000000
H         2.95240000000000    2.63260000000000    0.50539999999999
C         2.05040000000000    2.50089999999996    3.09320000000000
O         1.03750000000000    1.81620000000001    2.31909999999999
C         1.89100000000001    4.00449999999998    2.88650000000005
H         1.87290000000000    4.25440000000001    1.82409999999998
H         0.94939999999999    4.34260000000001    3.33169999999999
H         2.71080000000000    4.55150000000001    3.36630000000001
C         1.82469999999999    2.13200000000003    4.56520000000002
H         1.92610000000000    1.05330000000000    4.71320000000000
H         2.52609999999998    2.65280000000001    5.22540000000000
H         0.80630000000001    2.41580000000000    4.84900000000000
B         2.27820000000000   -1.33090000000000    0.17410000000000
O         2.89460000000000   -2.57740000000000    0.38450000000000
C         4.26930000000000   -2.48200000000000   -0.07210000000000
C         5.10900000000000   -2.05380000000000    1.14010000000000
H         4.76350000000000   -1.08740000000000    1.51750000000000
H         4.98050000000000   -2.79469999999999    1.93590000000000
H         6.17420000000000   -1.99290000000000    0.89300000000000
C         4.71950000000000   -3.84660000000000   -0.58470000000001
H         4.75280000000000   -4.56130000000000    0.24420000000001
H         5.72330000000000   -3.78370000000000   -1.02009999999999
H         4.03499999999999   -4.23600000000000   -1.34170000000001
C         4.16439999999999   -1.36219999999999   -1.16300000000000
O         3.08520000000000   -0.55030000000000   -0.65400000000000
C         5.40720000000000   -0.48870000000001   -1.31550000000000
H         6.27320000000000   -1.09010000000000   -1.61530000000000
H         5.23300000000000    0.26930000000000   -2.08590000000000
H         5.64270000000000    0.02650000000001   -0.38239999999999
C         3.71800000000000   -1.89829999999997   -2.53110000000002
H         2.82530000000000   -2.52160000000000   -2.42740000000000
H         3.46090000000000   -1.05249999999999   -3.17549999999999
H         4.50570000000000   -2.48290000000000   -3.01790000000000
H        -3.38500000000000   -4.00130000000001   -2.59310000000001
H        -5.21400000000000    1.52080000000000    1.29960000000000
C         0.23590000000001   -1.68140000000001    2.96030000000002
C        -0.89121690557738   -2.37900021262387    3.45855870512810
C         1.36149963466714   -1.71051196101799    3.79776472547549
C        -2.27003987757441   -2.44537166455277    2.84062828274358
C        -0.84195525990623   -3.03472575174203    4.69151812858337
C         1.39617014469280   -2.33649705034457    5.03400764204892
H         2.27367097545213   -1.25596621558070    3.43617581532509
N        -2.57629119017098   -3.57163503733577    1.97326017099474
H        -2.47095128861225   -1.53125826794973    2.28623653559182
H        -3.00253413208469   -2.47989021963020    3.65703357721940
C         0.29172687210901   -3.04358687162266    5.48255121153911
H        -1.71949969677791   -3.58158521271618    5.01914241717042
H         2.30448157317736   -2.32398395350848    5.62292445039251
C        -3.81744568024880   -3.75713120266468    1.44099729749285
C        -1.77066569716493   -4.58162125176549    1.55140564790729
H         0.30864680421862   -3.60007378056245    6.41063647732558
C        -3.80527874917824   -4.88888784946018    0.66807644422554
H        -4.61680248043415   -3.06451751741699    1.63991126252623
C        -2.49985361052796   -5.41430912250081    0.73938211398230
H        -0.73766229594011   -4.62848823426327    1.84611800066057
H        -4.63074747935554   -5.28629469960896    0.10227257199626
H        -2.13912417548951   -6.29487794197185    0.23628601284252
