      -----------------------------------------------------------      
     |                   =====================                   |     
     |                           x T B                           |     
     |                   =====================                   |     
     |                         S. Grimme                         |     
     |          Mulliken Center for Theoretical Chemistry        |     
     |                    University of Bonn                     |     
      -----------------------------------------------------------      

   * xtb version 6.4.0 (f63f532) compiled by 'knkr256@seskscpg008.prim.scp' on 2021-04-09

   xtb is free software: you can redistribute it and/or modify it under
   the terms of the GNU Lesser General Public License as published by
   the Free Software Foundation, either version 3 of the License, or
   (at your option) any later version.
   
   xtb is distributed in the hope that it will be useful,
   but WITHOUT ANY WARRANTY; without even the implied warranty of
   MERCHANTABILITY or FITNESS FOR A PARTICULAR PURPOSE.  See the
   GNU Lesser General Public License for more details.
   
   Cite this work as:
   * C. Bannwarth, E. Caldeweyher, S. Ehlert, A. Hansen, P. Pracht,
     J. Seibert, S. Spicher, S. Grimme, WIREs Comput. Mol. Sci., 2020, 11,
     e01493. DOI: 10.1002/wcms.1493
   
   for GFN2-xTB:
   * C. Bannwarth, S. Ehlert and S. Grimme., J. Chem. Theory Comput., 2019,
     15, 1652-1671. DOI: 10.1021/acs.jctc.8b01176
   for GFN1-xTB:
   * S. Grimme, C. Bannwarth, P. Shushkov, J. Chem. Theory Comput., 2017,
     13, 1989-2009. DOI: 10.1021/acs.jctc.7b00118
   for GFN0-xTB:
   * P. Pracht, E. Caldeweyher, S. Ehlert, S. Grimme, ChemRxiv, 2019, preprint.
     DOI: 10.26434/chemrxiv.8326202.v1
   for GFN-FF:
   * S. Spicher and S. Grimme, Angew. Chem. Int. Ed., 2020, 59, 15665-15673.
     DOI: 10.1002/anie.202004239
   
   for DFT-D4:
   * E. Caldeweyher, C. Bannwarth and S. Grimme, J. Chem. Phys., 2017,
     147, 034112. DOI: 10.1063/1.4993215
   * E. Caldeweyher, S. Ehlert, A. Hansen, H. Neugebauer, S. Spicher,
     C. Bannwarth and S. Grimme, J. Chem. Phys., 2019, 150, 154122.
     DOI: 10.1063/1.5090222
   * E. Caldeweyher, J.-M. Mewes, S. Ehlert and S. Grimme, Phys. Chem. Chem. Phys.
     2020, 22, 8499-8512. DOI: 10.1039/D0CP00502A
   
   for sTDA-xTB:
   * S. Grimme and C. Bannwarth, J. Chem. Phys., 2016, 145, 054103.
     DOI: 10.1063/1.4959605
   
   in the mass-spec context:
   * V. Asgeirsson, C. Bauer and S. Grimme, Chem. Sci., 2017, 8, 4879.
     DOI: 10.1039/c7sc00601b
   * J. Koopman and S. Grimme, ACS Omega 2019, 4, 12, 15120-15133.
     DOI: 10.1021/acsomega.9b02011
   
   for metadynamics refer to:
   * S. Grimme, J. Chem. Theory Comput., 2019, 155, 2847-2862
     DOI: 10.1021/acs.jctc.9b00143
   
   for SPH calculations refer to:
   * S. Spicher and S. Grimme, J. Chem. Theory Comput., 2021, 17, 1701-1714
     DOI: 10.1021/acs.jctc.0c01306
   
   with help from (in alphabetical order)
   P. Atkinson, C. Bannwarth, F. Bohle, G. Brandenburg, E. Caldeweyher
   M. Checinski, S. Dohm, S. Ehlert, S. Ehrlich, I. Gerasimov, J. Koopman
   C. Lavinge, S. Lehtola, F. März, M. Müller, F. Musil, H. Neugebauer
   J. Pisarek, P. Pracht, J. Seibert, P. Shushkov, S. Spicher, M. Stahn
   T. Strunk, J. Stückrath, T. Rose, and J. Unsleber
   
 * started run on 2021/10/08 at 07:12:11.666     

           -------------------------------------------------
          |                Calculation Setup                |
           -------------------------------------------------

          program call               : xtb xtbopt.xyz --sp --alpb thf -P 6
          hostname                   : seskscpg010.prim.scp
          coordinate file            : xtbopt.xyz
          omp threads                :                     6
          number of atoms            :                   107
          number of electrons        :                   280
          charge                     :                     0
          spin                       :                   0.0
          first test random number   :      0.68340997914311

   ID    Z sym.   atoms
    1    7 N      1, 11, 93
    2    6 C      2-6, 10, 12-15, 23, 24, 28, 32, 34, 38, 44, 45, 49, 53, 55,
                  59, 65, 66, 70, 74, 76, 80, 86-91, 96, 99, 100, 102, 104
    3    1 H      7-9, 16-18, 20, 25-27, 29-31, 35-37, 39-41, 46-48, 50-52,
                  56-58, 60-62, 67-69, 71-73, 77-79, 81-85, 92, 94, 95, 97,
                  98, 101, 103, 105-107
    4   77 Ir     19
    5    5 B      21, 42, 63
    6    8 O      22, 33, 43, 54, 64, 75

molecular fragmentation (1/2 indicates fragments):
111111111111111111111111111111111111111111111111111111111111111111111111
11111111111112222222222222222222222
# atoms in fragment 1/2:    85    22
 fragment masses (1/2) :      730.32      156.20
CMA distance (Bohr)    :   8.568
constraining FC (au)   :  0.0500

           -------------------------------------------------
          |                 G F N 2 - x T B                 |
           -------------------------------------------------

        Reference                      10.1021/acs.jctc.8b01176
      * Hamiltonian:
        H0-scaling (s, p, d)           1.850000    2.230000    2.230000
        zeta-weighting                 0.500000
      * Dispersion:
        s8                             2.700000
        a1                             0.520000
        a2                             5.000000
        s9                             5.000000
      * Repulsion:
        kExp                           1.500000    1.000000
        rExp                           1.000000
      * Coulomb:
        alpha                          2.000000
        third order                    shell-resolved
        anisotropic                    true
        a3                             3.000000
        a5                             4.000000
        cn-shift                       1.200000
        cn-exp                         4.000000
        max-rad                        5.000000

      * Solvation model:               ALPB
        Solvent                        thf
        Parameter file                 internal GFN2-xTB/ALPB
        Dielectric constant                7.6000E+00
        Reference state                gsolv [1 M gas/solution]
        Free energy shift                  5.3248E-03 Eh       3.3414E+00 kcal/mol
        Temperature                        2.9815E+02 K
        Density                            8.8300E-01 kg/L
        Solvent mass                       7.2106E+01 g/mol
        Interaction kernel             P16
        Born radius scaling (c1)           1.7311E+00
        Born radii integrator          GBOBC
        Born offset                        0.0000E+00 a0       0.0000E+00 AA
        H-bond correction              true
        Ion screening                  false
        Surface tension                    1.0000E-05 Eh       1.5569E+01 dyn/cm
        Grid points                               230 per atom
q/qsh data taken from xtbrestart
CAMM data taken from xtbrestart

          ...................................................
          :                      SETUP                      :
          :.................................................:
          :  # basis functions                 269          :
          :  # atomic orbitals                 268          :
          :  # shells                          160          :
          :  # electrons                       280          :
          :  max. iterations                   250          :
          :  Hamiltonian                  GFN2-xTB          :
          :  restarted?                       true          :
          :  GBSA solvation                   true          :
          :  PC potential                    false          :
          :  electronic temp.          300.0000000     K    :
          :  accuracy                    1.0000000          :
          :  -> integral cutoff          0.2500000E+02      :
          :  -> integral neglect         0.1000000E-07      :
          :  -> SCF convergence          0.1000000E-05 Eh   :
          :  -> wf. convergence          0.1000000E-03 e    :
          :  Broyden damping             0.4000000          :
          ...................................................

 iter      E             dE          RMSdq      gap      omega  full diag
   1   -154.6781680 -0.154678E+03  0.208E-05    0.91       0.0  T
   2   -154.6781680  0.549960E-10  0.293E-05    0.91     329.7  T
   3   -154.6781680 -0.605098E-10  0.149E-05    0.91     647.9  T

   *** convergence criteria satisfied after 3 iterations ***

         #    Occupation            Energy/Eh            Energy/eV
      -------------------------------------------------------------
         1        2.0000           -0.6760946             -18.3975
       ...           ...                  ...                  ...
       134        2.0000           -0.3559301              -9.6854
       135        2.0000           -0.3490899              -9.4992
       136        2.0000           -0.3307719              -9.0008
       137        2.0000           -0.3229674              -8.7884
       138        2.0000           -0.3174826              -8.6391
       139        2.0000           -0.3112096              -8.4684
       140        2.0000           -0.3077464              -8.3742 (HOMO)
       141                         -0.2742959              -7.4640 (LUMO)
       142                         -0.2469134              -6.7189
       143                         -0.2431065              -6.6153
       144                         -0.2146986              -5.8422
       145                         -0.2091846              -5.6922
       ...                                ...                  ...
       268                          3.9758784             108.1892
      -------------------------------------------------------------
                  HL-Gap            0.0334506 Eh            0.9102 eV
             Fermi-level           -0.2910089 Eh           -7.9188 eV

 SCC (total)                   0 d,  0 h,  0 min,  0.114 sec
 SCC setup                      ...        0 min,  0.003 sec (  2.550%)
 Dispersion                     ...        0 min,  0.002 sec (  1.753%)
 classical contributions        ...        0 min,  0.000 sec (  0.149%)
 integral evaluation            ...        0 min,  0.030 sec ( 26.433%)
 iterations                     ...        0 min,  0.034 sec ( 29.919%)
 molecular gradient             ...        0 min,  0.044 sec ( 38.606%)
 printout                       ...        0 min,  0.001 sec (  0.539%)

         :::::::::::::::::::::::::::::::::::::::::::::::::::::
         ::                     SUMMARY                     ::
         :::::::::::::::::::::::::::::::::::::::::::::::::::::
         :: total energy            -152.620607593617 Eh    ::
         :: total w/o Gsasa/hb      -152.580499673255 Eh    ::
         :: gradient norm              0.028732128009 Eh/a0 ::
         :: HOMO-LUMO gap              0.910236145981 eV    ::
         ::.................................................::
         :: SCC energy              -154.678167993768 Eh    ::
         :: -> isotropic ES            0.235668859986 Eh    ::
         :: -> anisotropic ES          0.015237893567 Eh    ::
         :: -> anisotropic XC          0.056364313417 Eh    ::
         :: -> dispersion             -0.157482634613 Eh    ::
         :: -> Gsolv                  -0.048875084780 Eh    ::
         ::    -> Gelec               -0.008767164418 Eh    ::
         ::    -> Gsasa               -0.043130906743 Eh    ::
         ::    -> Ghb                 -0.002301829063 Eh    ::
         ::    -> Gshift               0.005324815444 Eh    ::
         :: repulsion energy           2.046998875678 Eh    ::
         :: add. restraining           0.000000000000 Eh    ::
         :: total charge               0.000000001183 e     ::
         :::::::::::::::::::::::::::::::::::::::::::::::::::::

           -------------------------------------------------
          |                Property Printout                |
           -------------------------------------------------

    * Orbital Energies and Occupations

         #    Occupation            Energy/Eh            Energy/eV
      -------------------------------------------------------------
         1        2.0000           -0.6760946             -18.3975
       ...           ...                  ...                  ...
       128        2.0000           -0.3873393             -10.5400
       129        2.0000           -0.3865825             -10.5194
       130        2.0000           -0.3850122             -10.4767
       131        2.0000           -0.3833397             -10.4312
       132        2.0000           -0.3823237             -10.4036
       133        2.0000           -0.3700971             -10.0709
       134        2.0000           -0.3559301              -9.6854
       135        2.0000           -0.3490899              -9.4992
       136        2.0000           -0.3307719              -9.0008
       137        2.0000           -0.3229674              -8.7884
       138        2.0000           -0.3174826              -8.6391
       139        2.0000           -0.3112096              -8.4684
       140        2.0000           -0.3077464              -8.3742 (HOMO)
       141                         -0.2742959              -7.4640 (LUMO)
       142                         -0.2469134              -6.7189
       143                         -0.2431065              -6.6153
       144                         -0.2146986              -5.8422
       145                         -0.2091846              -5.6922
       146                         -0.2023770              -5.5070
       147                         -0.1827360              -4.9725
       148                         -0.1696823              -4.6173
       149                         -0.1489582              -4.0534
       150                         -0.1278531              -3.4791
       151                         -0.1269843              -3.4554
       ...                                ...                  ...
       268                          3.9758784             108.1892
      -------------------------------------------------------------
                  HL-Gap            0.0334506 Eh            0.9102 eV
             Fermi-level           -0.2910089 Eh           -7.9188 eV

     #   Z          covCN         q      C6AA      α(0)
     1   7 N        2.548    -0.124    23.729     7.234
     2   6 C        2.955     0.077    26.278     8.408
     3   6 C        2.918    -0.043    29.059     8.840
     4   6 C        2.924    -0.021    28.525     8.759
     5   6 C        2.915    -0.040    28.999     8.831
     6   6 C        2.893     0.054    26.785     8.485
     7   1 H        0.926     0.047     2.353     2.399
     8   1 H        0.926     0.052     2.290     2.366
     9   1 H        0.926     0.044     2.396     2.421
    10   6 C        2.951     0.071    26.409     8.429
    11   7 N        2.563    -0.131    23.871     7.256
    12   6 C        2.887     0.039    27.118     8.538
    13   6 C        2.915    -0.046    29.143     8.852
    14   6 C        2.922    -0.027    28.665     8.780
    15   6 C        2.918    -0.045    29.121     8.849
    16   1 H        0.926     0.043     2.404     2.425
    17   1 H        0.926     0.051     2.311     2.377
    18   1 H        0.926     0.076     2.023     2.224
    19  77 Ir       5.941    -0.148   387.264    36.391
    20   1 H        0.977     0.086     1.915     2.163
    21   5 B        2.624     0.406    16.017     6.767
    22   8 O        1.638    -0.410    21.044     6.192
    23   6 C        3.835     0.131    18.438     6.109
    24   6 C        3.755    -0.121    22.869     6.819
    25   1 H        0.925     0.053     2.284     2.363
    26   1 H        0.925     0.045     2.382     2.414
    27   1 H        0.925     0.051     2.310     2.377
    28   6 C        3.755    -0.110    22.653     6.787
    29   1 H        0.925     0.048     2.347     2.396
    30   1 H        0.925     0.042     2.422     2.434
    31   1 H        0.925     0.029     2.604     2.524
    32   6 C        3.839     0.131    18.430     6.107
    33   8 O        1.637    -0.405    20.958     6.180
    34   6 C        3.755    -0.121    22.871     6.819
    35   1 H        0.925     0.052     2.289     2.366
    36   1 H        0.925     0.046     2.373     2.409
    37   1 H        0.925     0.048     2.341     2.393
    38   6 C        3.754    -0.119    22.844     6.815
    39   1 H        0.925     0.047     2.358     2.401
    40   1 H        0.925     0.053     2.288     2.366
    41   1 H        0.925     0.045     2.378     2.411
    42   5 B        2.620     0.404    16.066     6.782
    43   8 O        1.637    -0.382    20.519     6.115
    44   6 C        3.832     0.128    18.477     6.116
    45   6 C        3.755    -0.126    22.978     6.835
    46   1 H        0.925     0.055     2.262     2.352
    47   1 H        0.925     0.056     2.241     2.341
    48   1 H        0.925     0.050     2.326     2.385
    49   6 C        3.755    -0.121    22.875     6.820
    50   1 H        0.925     0.048     2.344     2.394
    51   1 H        0.925     0.044     2.396     2.421
    52   1 H        0.925     0.053     2.285     2.364
    53   6 C        3.831     0.127    18.497     6.119
    54   8 O        1.637    -0.381    20.495     6.111
    55   6 C        3.755    -0.124    22.939     6.829
    56   1 H        0.925     0.053     2.284     2.363
    57   1 H        0.925     0.055     2.262     2.352
    58   1 H        0.925     0.049     2.337     2.390
    59   6 C        3.755    -0.125    22.960     6.832
    60   1 H        0.925     0.046     2.369     2.407
    61   1 H        0.925     0.053     2.283     2.363
    62   1 H        0.925     0.052     2.291     2.367
    63   5 B        2.628     0.406    16.000     6.760
    64   8 O        1.637    -0.375    20.382     6.094
    65   6 C        3.833     0.126    18.518     6.123
    66   6 C        3.755    -0.128    23.012     6.840
    67   1 H        0.925     0.056     2.250     2.346
    68   1 H        0.925     0.055     2.256     2.349
    69   1 H        0.925     0.050     2.324     2.384
    70   6 C        3.755    -0.130    23.045     6.845
    71   1 H        0.925     0.061     2.185     2.312
    72   1 H        0.925     0.050     2.317     2.380
    73   1 H        0.925     0.053     2.285     2.364
    74   6 C        3.830     0.128    18.489     6.118
    75   8 O        1.637    -0.386    20.584     6.124
    76   6 C        3.755    -0.124    22.924     6.827
    77   1 H        0.925     0.051     2.308     2.376
    78   1 H        0.925     0.053     2.288     2.366
    79   1 H        0.925     0.055     2.264     2.353
    80   6 C        3.755    -0.122    22.892     6.822
    81   1 H        0.925     0.040     2.454     2.450
    82   1 H        0.925     0.050     2.326     2.385
    83   1 H        0.925     0.055     2.264     2.353
    84   1 H        0.926     0.050     2.314     2.379
    85   1 H        0.926     0.048     2.344     2.394
    86   6 C        2.828    -0.026    28.648     8.771
    87   6 C        2.971     0.004    27.920     8.667
    88   6 C        2.925    -0.040    29.003     8.832
    89   6 C        3.748    -0.007    20.772     6.500
    90   6 C        2.926    -0.044    29.099     8.846
    91   6 C        2.918    -0.036    28.908     8.817
    92   1 H        0.926     0.049     2.337     2.391
    93   7 N        2.861    -0.002    21.292     6.853
    94   1 H        0.924     0.057     2.233     2.337
    95   1 H        0.923     0.047     2.352     2.398
    96   6 C        2.916    -0.043    29.074     8.842
    97   1 H        0.925     0.030     2.581     2.512
    98   1 H        0.926     0.032     2.555     2.499
    99   6 C        3.070    -0.031    28.689     8.783
   100   6 C        3.061    -0.025    28.556     8.763
   101   1 H        0.926     0.034     2.529     2.487
   102   6 C        3.057    -0.076    29.837     8.958
   103   1 H        0.926     0.011     2.877     2.653
   104   6 C        3.064    -0.078    29.868     8.962
   105   1 H        0.926     0.028     2.609     2.526
   106   1 H        0.926     0.010     2.888     2.657
   107   1 H        0.926     0.014     2.822     2.627

 Mol. C6AA /au·bohr⁶  :     123437.473949
 Mol. C8AA /au·bohr⁸  :    3263356.367281
 Mol. α(0) /au        :        546.956834


Wiberg/Mayer (AO) data.
largest (>0.10) Wiberg bond orders for each atom

 ---------------------------------------------------------------------------
     #   Z sym  total        # sym  WBO       # sym  WBO       # sym  WBO
 ---------------------------------------------------------------------------
     1   7 N    3.394 --     6 C    1.392     2 C    1.305    19 Ir   0.434
     2   6 C    3.979 --     3 C    1.348     1 N    1.305    10 C    1.095
     3   6 C    3.988 --     4 C    1.483     2 C    1.348     9 H    0.962
                             6 C    0.106
     4   6 C    3.984 --     3 C    1.483     5 C    1.383    84 H    0.969
     5   6 C    3.979 --     6 C    1.457     4 C    1.383     8 H    0.969
     6   6 C    3.979 --     5 C    1.457     1 N    1.392     7 H    0.958
                             3 C    0.106
     7   1 H    0.997 --     6 C    0.958
     8   1 H    0.996 --     5 C    0.969
     9   1 H    0.998 --     3 C    0.962
    10   6 C    3.978 --    15 C    1.356    11 N    1.286     2 C    1.095
    11   7 N    3.407 --    12 C    1.375    10 C    1.286    19 Ir   0.447
    12   6 C    3.973 --    13 C    1.463    11 N    1.375    18 H    0.949
                            15 C    0.103
    13   6 C    3.982 --    12 C    1.463    14 C    1.379    17 H    0.969
    14   6 C    3.980 --    15 C    1.476    13 C    1.379    85 H    0.969
    15   6 C    3.988 --    14 C    1.476    10 C    1.356    16 H    0.962
                            12 C    0.103
    16   1 H    0.998 --    15 C    0.962
    17   1 H    0.997 --    13 C    0.969
    18   1 H    0.994 --    12 C    0.949
    19  77 Ir   5.161 --    63 B    0.850    42 B    0.849    21 B    0.699
                            86 C    0.598    20 H    0.537    11 N    0.447
                             1 N    0.434
    20   1 H    0.990 --    19 Ir   0.537    86 C    0.342
    21   5 B    3.273 --    33 O    1.110    22 O    1.095    19 Ir   0.699
    22   8 O    2.191 --    21 B    1.095    23 C    0.941
    23   6 C    3.943 --    24 C    0.997    28 C    0.990    22 O    0.941
                            32 C    0.941
    24   6 C    3.994 --    23 C    0.997    26 H    0.984    27 H    0.983
                            25 H    0.983
    25   1 H    0.997 --    24 C    0.983
    26   1 H    0.997 --    24 C    0.984
    27   1 H    0.997 --    24 C    0.983
    28   6 C    3.997 --    23 C    0.990    31 H    0.985    29 H    0.984
                            30 H    0.984
    29   1 H    0.997 --    28 C    0.984
    30   1 H    0.998 --    28 C    0.984
    31   1 H    0.999 --    28 C    0.985
    32   6 C    3.940 --    38 C    0.997    34 C    0.991    23 C    0.941
                            33 O    0.938
    33   8 O    2.201 --    21 B    1.110    32 C    0.938
    34   6 C    3.994 --    32 C    0.991    36 H    0.984    37 H    0.982
                            35 H    0.981
    35   1 H    0.997 --    34 C    0.981
    36   1 H    0.997 --    34 C    0.984
    37   1 H    0.997 --    34 C    0.982
    38   6 C    3.994 --    32 C    0.997    41 H    0.984    39 H    0.983
                            40 H    0.982
    39   1 H    0.998 --    38 C    0.983
    40   1 H    0.997 --    38 C    0.982
    41   1 H    0.997 --    38 C    0.984
    42   5 B    3.339 --    43 O    1.116    54 O    1.113    19 Ir   0.849
    43   8 O    2.228 --    42 B    1.116    44 C    0.937
    44   6 C    3.936 --    45 C    0.996    49 C    0.991    53 C    0.938
                            43 O    0.937
    45   6 C    3.993 --    44 C    0.996    48 H    0.983    46 H    0.982
                            47 H    0.981
    46   1 H    0.997 --    45 C    0.982
    47   1 H    0.997 --    45 C    0.981
    48   1 H    0.996 --    45 C    0.983
    49   6 C    3.994 --    44 C    0.991    50 H    0.983    51 H    0.983
                            52 H    0.979
    50   1 H    0.997 --    49 C    0.983
    51   1 H    0.998 --    49 C    0.983
    52   1 H    0.997 --    49 C    0.979
    53   6 C    3.937 --    55 C    0.996    59 C    0.992    44 C    0.938
                            54 O    0.934
    54   8 O    2.228 --    42 B    1.113    53 C    0.934
    55   6 C    3.993 --    53 C    0.996    58 H    0.983    57 H    0.983
                            56 H    0.982
    56   1 H    0.997 --    55 C    0.982
    57   1 H    0.997 --    55 C    0.983
    58   1 H    0.996 --    55 C    0.983
    59   6 C    3.994 --    53 C    0.992    61 H    0.983    62 H    0.983
                            60 H    0.982
    60   1 H    0.998 --    59 C    0.982
    61   1 H    0.996 --    59 C    0.983
    62   1 H    0.997 --    59 C    0.983
    63   5 B    3.358 --    64 O    1.116    75 O    1.111    19 Ir   0.850
    64   8 O    2.233 --    63 B    1.116    65 C    0.938
    65   6 C    3.937 --    70 C    0.996    66 C    0.991    74 C    0.938
                            64 O    0.938
    66   6 C    3.993 --    65 C    0.991    69 H    0.983    68 H    0.982
                            67 H    0.979
    67   1 H    0.997 --    66 C    0.979
    68   1 H    0.997 --    66 C    0.982
    69   1 H    0.997 --    66 C    0.983
    70   6 C    3.992 --    65 C    0.996    72 H    0.983    73 H    0.982
                            71 H    0.982
    71   1 H    0.996 --    70 C    0.982
    72   1 H    0.996 --    70 C    0.983
    73   1 H    0.997 --    70 C    0.982
    74   6 C    3.935 --    76 C    0.997    80 C    0.991    65 C    0.938
                            75 O    0.935
    75   8 O    2.225 --    63 B    1.111    74 C    0.935
    76   6 C    3.993 --    74 C    0.997    77 H    0.983    79 H    0.982
                            78 H    0.982
    77   1 H    0.996 --    76 C    0.983
    78   1 H    0.997 --    76 C    0.982
    79   1 H    0.997 --    76 C    0.982
    80   6 C    3.995 --    74 C    0.991    81 H    0.983    82 H    0.983
                            83 H    0.983
    81   1 H    0.998 --    80 C    0.983
    82   1 H    0.997 --    80 C    0.983
    83   1 H    0.996 --    80 C    0.983
    84   1 H    0.997 --     4 C    0.969
    85   1 H    0.997 --    14 C    0.969
    86   6 C    3.946 --    88 C    1.371    87 C    1.369    19 Ir   0.598
                            20 H    0.342
    87   6 C    3.983 --    90 C    1.403    86 C    1.369    89 C    1.000
                            91 C    0.100
    88   6 C    3.989 --    91 C    1.456    86 C    1.371    92 H    0.957
                            90 C    0.106
    89   6 C    3.972 --    87 C    1.000    93 N    0.977    95 H    0.962
                            94 H    0.946
    90   6 C    3.986 --    96 C    1.448    87 C    1.403    97 H    0.966
                            88 C    0.106
    91   6 C    3.988 --    88 C    1.456    96 C    1.416    98 H    0.969
                            87 C    0.100
    92   1 H    0.997 --    88 C    0.957
    93   7 N    3.643 --   100 C    1.239    99 C    1.233    89 C    0.977
    94   1 H    0.997 --    89 C    0.946
    95   1 H    0.997 --    89 C    0.962
    96   6 C    3.986 --    90 C    1.448    91 C    1.416   101 H    0.970
    97   1 H    0.997 --    90 C    0.966
    98   1 H    0.998 --    91 C    0.969
    99   6 C    3.942 --   102 C    1.539    93 N    1.233   103 H    0.971
                           100 C    0.128
   100   6 C    3.946 --   104 C    1.537    93 N    1.239   105 H    0.968
                            99 C    0.128
   101   1 H    0.997 --    96 C    0.970
   102   6 C    3.976 --    99 C    1.539   104 C    1.337   106 H    0.975
   103   1 H    1.000 --    99 C    0.971
   104   6 C    3.976 --   100 C    1.537   102 C    1.337   107 H    0.975
   105   1 H    0.999 --   100 C    0.968
   106   1 H    0.999 --   102 C    0.975
   107   1 H    1.000 --   104 C    0.975
 ---------------------------------------------------------------------------

Topologies differ in total number of bonds
Writing topology from bond orders to xtbtopo.mol

molecular dipole:
                 x           y           z       tot (Debye)
 q only:        0.436       1.340      -0.452
   full:       -0.649       1.729      -1.099       5.462
molecular quadrupole (traceless):
                xx          xy          yy          xz          yz          zz
 q only:       15.904      -5.414     -16.637       1.284      11.443       0.732
  q+dip:       19.934      -4.789     -20.498       2.712      16.185       0.564
   full:       17.834      -3.341     -18.034      -0.343      13.320       0.200


           -------------------------------------------------
          | TOTAL ENERGY             -152.620607593617 Eh   |
          | GRADIENT NORM               0.028732128009 Eh/α |
          | HOMO-LUMO GAP               0.910236145981 eV   |
           -------------------------------------------------

------------------------------------------------------------------------
 * finished run on 2021/10/08 at 07:12:11.824     
------------------------------------------------------------------------
 total:
 * wall-time:     0 d,  0 h,  0 min,  0.158 sec
 *  cpu-time:     0 d,  0 h,  0 min,  0.924 sec
 * ratio c/w:     5.852 speedup
 SCF:
 * wall-time:     0 d,  0 h,  0 min,  0.116 sec
 *  cpu-time:     0 d,  0 h,  0 min,  0.692 sec
 * ratio c/w:     5.977 speedup

