107
 energy: -152.593820319684 gnorm: 0.077524646918 xtb: 6.4.0 (f63f532)
N        -0.96509999999999   -2.11530000000000   -0.24090000000001
C        -2.24700000000000   -1.69840000000000   -0.36220000000002
C        -3.14039999999999   -2.36820000000000   -1.21199999999999
C        -2.70220000000002   -3.47560000000001   -1.93050000000001
C        -1.37780000000001   -3.89880000000000   -1.78759999999998
C        -0.54289999999999   -3.18670000000002   -0.93510000000002
H         0.49810000000000   -3.45630000000000   -0.78940000000000
H        -0.99570000000000   -4.76030000000001   -2.32770000000001
H        -4.16500000000000   -2.02890000000000   -1.31830000000000
C        -2.62130000000001   -0.50950000000000    0.44100000000000
N        -1.62600000000000    0.07330000000000    1.16020000000000
C        -1.89680000000000    1.15240000000000    1.91689999999999
C        -3.17230000000000    1.70330000000000    1.99650000000000
C        -4.20510000000000    1.11740000000000    1.26270000000001
C        -3.92610000000000    0.00250000000000    0.47820000000000
H        -4.71960000000000   -0.46420000000000   -0.09520000000000
H        -3.34630000000000    2.57510000000000    2.62070000000000
H        -1.04450000000000    1.57419999999999    2.43690000000000
Ir        0.42150000000000   -0.81650000000000    0.91330000000000
H         0.87260000000000   -2.23030000000000    1.54050000000000
B         0.50670000000000    0.41560000000000   -0.81540000000001
O         0.19500000000000   -0.04700000000001   -2.09150000000000
C         0.00650000000001    1.10040000000001   -2.95430000000002
C         0.49019999999999    0.74740000000000   -4.35780000000000
H         1.51610000000001    0.37380000000000   -4.33700000000000
H         0.44730000000000    1.62240000000003   -5.01670000000000
H        -0.14739999999999   -0.03389999999999   -4.78430000000000
C        -1.50120000000000    1.39560000000000   -2.96670000000000
H        -1.75370000000000    2.21460000000002   -3.64850000000001
H        -2.03199999999999    0.49449999999999   -3.28930000000000
H        -1.85170000000000    1.65210000000000   -1.96220000000000
C         0.84229999999998    2.20670000000001   -2.22040000000000
O         0.75200000000000    1.78259999999996   -0.83689999999997
C         2.32930000000001    2.18620000000000   -2.59900000000001
H         2.74130000000001    1.18499999999998   -2.45750000000000
H         2.48870000000000    2.51300000000000   -3.63179999999999
H         2.87200000000000    2.86270000000001   -1.93200000000001
C         0.28440000000000    3.62290000000002   -2.33660000000001
H        -0.72650000000000    3.69040000000000   -1.92910000000000
H         0.92130000000000    4.31480000000000   -1.77610000000000
H         0.26430000000000    3.94810000000000   -3.38320000000000
B         1.56300000000000    0.60960000000000    1.84840000000000
O         2.92780000000000    0.55230000000001    2.15020000000000
C         3.36329999999999    1.88660000000000    2.50259999999998
C         4.53140000000001    1.78589999999999    3.47740000000001
H         4.27910000000001    1.16090000000001    4.33689999999998
H         5.39390000000000    1.33790000000000    2.97340000000000
H         4.82390000000001    2.77870000000001    3.83820000000000
C         3.79699999999999    2.56849999999999    1.19670000000001
H         4.20020000000000    3.57090000000000    1.37680000000000
H         4.56740000000000    1.95560000000000    0.72110000000000
H         2.95240000000000    2.63260000000000    0.50539999999999
C         2.05040000000000    2.50089999999996    3.09320000000000
O         1.03750000000000    1.81620000000001    2.31909999999999
C         1.89100000000001    4.00449999999998    2.88650000000005
H         1.87290000000000    4.25440000000001    1.82409999999998
H         0.94939999999999    4.34260000000001    3.33169999999999
H         2.71080000000000    4.55150000000001    3.36630000000001
C         1.82469999999999    2.13200000000003    4.56520000000002
H         1.92610000000000    1.05330000000000    4.71320000000000
H         2.52609999999998    2.65280000000001    5.22540000000000
H         0.80630000000001    2.41580000000000    4.84900000000000
B         2.27820000000000   -1.33090000000000    0.17410000000000
O         2.89460000000000   -2.57740000000000    0.38450000000000
C         4.26930000000000   -2.48200000000000   -0.07210000000000
C         5.10900000000000   -2.05380000000000    1.14010000000000
H         4.76350000000000   -1.08740000000000    1.51750000000000
H         4.98050000000000   -2.79469999999999    1.93590000000000
H         6.17420000000000   -1.99290000000000    0.89300000000000
C         4.71950000000000   -3.84660000000000   -0.58470000000001
H         4.75280000000000   -4.56130000000000    0.24420000000001
H         5.72330000000000   -3.78370000000000   -1.02009999999999
H         4.03499999999999   -4.23600000000000   -1.34170000000001
C         4.16439999999999   -1.36219999999999   -1.16300000000000
O         3.08520000000000   -0.55030000000000   -0.65400000000000
C         5.40720000000000   -0.48870000000001   -1.31550000000000
H         6.27320000000000   -1.09010000000000   -1.61530000000000
H         5.23300000000000    0.26930000000000   -2.08590000000000
H         5.64270000000000    0.02650000000001   -0.38239999999999
C         3.71800000000000   -1.89829999999997   -2.53110000000002
H         2.82530000000000   -2.52160000000000   -2.42740000000000
H         3.46090000000000   -1.05249999999999   -3.17549999999999
H         4.50570000000000   -2.48290000000000   -3.01790000000000
H        -3.38500000000000   -4.00130000000001   -2.59310000000001
H        -5.21400000000000    1.52080000000000    1.29960000000000
C         0.23590000000001   -1.68140000000001    2.96030000000002
C        -0.89121690557738   -2.37900021262387    3.45855870512810
C         1.36149963466714   -1.71051196101799    3.79776472547549
C        -2.27003987757441   -2.44537166455277    2.84062828274358
C        -0.84195525990623   -3.03472575174203    4.69151812858337
C         1.39617014469280   -2.33649705034457    5.03400764204892
H         2.27367097545213   -1.25596621558070    3.43617581532509
N        -2.57629119017098   -3.57163503733577    1.97326017099474
H        -2.47095128861225   -1.53125826794973    2.28623653559182
H        -3.00253413208469   -2.47989021963020    3.65703357721940
C         0.29172687210901   -3.04358687162266    5.48255121153911
H        -1.71949969677791   -3.58158521271618    5.01914241717042
H         2.30448157317736   -2.32398395350848    5.62292445039251
C        -3.81744568024880   -3.75713120266468    1.44099729749285
C        -1.77066569716493   -4.58162125176549    1.55140564790729
H         0.30864680421862   -3.60007378056245    6.41063647732558
C        -3.80527874917824   -4.88888784946018    0.66807644422554
H        -4.61680248043415   -3.06451751741699    1.63991126252623
C        -2.49985361052796   -5.41430912250081    0.73938211398230
H        -0.73766229594011   -4.62848823426327    1.84611800066057
H        -4.63074747935554   -5.28629469960896    0.10227257199626
H        -2.13912417548951   -6.29487794197185    0.23628601284252
107
 energy: -152.602302686647 gnorm: 0.048172273114 xtb: 6.4.0 (f63f532)
N        -0.95559956996129   -2.07894131007277   -0.28008962649504
C        -2.23099350684288   -1.66454880214195   -0.40147247318895
C        -3.12780603102925   -2.34611795520216   -1.23143320781391
C        -2.69758815731549   -3.45116256689883   -1.94022186842196
C        -1.37846223494416   -3.86848631554430   -1.80025147206015
C        -0.54965221598202   -3.15303455567396   -0.95899374296796
H         0.47999494059528   -3.44205771542643   -0.79647355076433
H        -1.00566225826897   -4.73822436484959   -2.32239238633329
H        -4.15291267429083   -2.02165899715686   -1.32412653305512
C        -2.60005618880592   -0.47477579710988    0.38313090734671
N        -1.60516952286118    0.11332457613207    1.09109495015226
C        -1.89145457640595    1.16151302392857    1.86875720571068
C        -3.16497154367645    1.69276847342013    1.97789483736668
C        -4.19577483422125    1.10868411936809    1.24943983772446
C        -3.91037511472396    0.01457622041207    0.45119798179160
H        -4.70539395450593   -0.46189469722043   -0.10168906647360
H        -3.34353079548105    2.54653585311576    2.61661095797858
H        -1.05217453429642    1.56821497762510    2.41342343318029
Ir        0.42150000000000   -0.81650000000000    0.91330000000000
H         0.87260000000000   -2.23030000000000    1.54050000000000
B         0.49828480893355    0.42163690784714   -0.79372815050399
O         0.17870009174380   -0.03472073865912   -2.06586436184154
C         0.01171836210349    1.09841429953044   -2.94410382218060
C         0.49033636560526    0.75022164796178   -4.34951117764942
H         1.50944251111593    0.37367345706192   -4.32858307078836
H         0.44524629573656    1.62590955266792   -4.99770085726063
H        -0.14820223506416   -0.02590619965204   -4.77010788874709
C        -1.49280043291060    1.40041154059663   -2.96919504260849
H        -1.73233729767660    2.21379567529668   -3.65253024440034
H        -2.02299904081823    0.50339752427341   -3.28935807270337
H        -1.83959750037296    1.65479046183741   -1.96744282463429
C         0.83352506905815    2.20783049022286   -2.21200264002663
O         0.75773759893828    1.77869149801608   -0.83554917096764
C         2.31634580471245    2.19232118896419   -2.59885594358799
H         2.72101071747295    1.19312752138295   -2.45008651635054
H         2.46857214349008    2.51470718104788   -3.62819846413490
H         2.85840537584762    2.86644283094256   -1.93654730111417
C         0.28148995808394    3.62403399957065   -2.33713079539422
H        -0.72206275662816    3.69239985397439   -1.92526808622521
H         0.92066797543622    4.30759644748674   -1.77969942061184
H         0.26382982624020    3.93793979091678   -3.38093909691516
B         1.56369943686738    0.62485528899817    1.84503873324288
O         2.92373856232246    0.57018213410125    2.12922320021899
C         3.36304955377672    1.88902325803008    2.50853112176938
C         4.53205821592534    1.78765577542789    3.48023108462034
H         4.27902261845683    1.15900007477131    4.32994732337876
H         5.38731397430266    1.34318818373355    2.97288121160823
H         4.81576256043665    2.77706750074196    3.83785617704388
C         3.79994813361739    2.57620433972597    1.21064379317296
H         4.20180052897098    3.57143690133335    1.39512757267832
H         4.56367565550855    1.96383938237858    0.73402159697041
H         2.95210271413790    2.62899576768292    0.52888173807727
C         2.05245836200296    2.50522393530869    3.09015663310289
O         1.03950642389031    1.81293200099769    2.33374755716978
C         1.89385972064155    4.00744769910266    2.89156704415493
H         1.86905859106291    4.25186956633093    1.83341042307228
H         0.95612294592548    4.33593853182704    3.33798100699929
H         2.71417044893979    4.54313464797690    3.36856226389958
C         1.83077590839379    2.13823641753357    4.56197003664312
H         1.93217831717663    1.06248765506746    4.69978524861523
H         2.53153234089329    2.65892591655835    5.21217846129922
H         0.81634846046017    2.41657464248743    4.84663002230881
B         2.27820000000000   -1.33090000000000    0.17410000000000
O         2.90095244163222   -2.56155062410309    0.39046244558228
C         4.26550280070131   -2.48305865222007   -0.07806767287581
C         5.10985545487813   -2.05874695299478    1.12828650020161
H         4.75418283844243   -1.09870802234532    1.50006190831843
H         4.97827543597579   -2.79451218355126    1.92082067524410
H         6.16767949130953   -1.99862091194323    0.87672995357577
C         4.72028704002873   -3.84498309274542   -0.58879067801415
H         4.74980596963768   -4.55010154720939    0.24064872288023
H         5.71813050115090   -3.77356913855700   -1.02095838692721
H         4.03467761770174   -4.23214735332942   -1.33782005812381
C         4.16603215929903   -1.35952214713810   -1.15791001594439
O         3.07416209414726   -0.56294322863820   -0.66100230116035
C         5.40932064569606   -0.49094098889870   -1.31506507095946
H         6.26560061221220   -1.09633039710064   -1.61133271431153
H         5.23112815976350    0.26073125190141   -2.08293181657680
H         5.63741015248895    0.02297430096717   -0.38571797535051
C         3.72854012704724   -1.89780120303018   -2.52643586418960
H         2.83645076130774   -2.51346777537878   -2.41859981277756
H         3.47127305856656   -1.05593626808844   -3.16798531263264
H         4.51822425082085   -2.47477244808102   -3.00493261992114
H        -3.38071361899235   -3.98673681387295   -2.58530000350264
H        -5.20295441396042    1.50063898672627    1.30192131147949
C         0.23590000000001   -1.68140000000000    2.96030000000003
C        -0.88963613748080   -2.37972625053610    3.46734539806135
C         1.36517559814284   -1.70494706778372    3.79775684116606
C        -2.26857687842937   -2.44548518519296    2.84738678014978
C        -0.83253373619712   -3.02920134378177    4.70112158465813
C         1.40253734019802   -2.32659864037093    5.03364558870939
H         2.27442456976157   -1.25087830741210    3.43439868995406
N        -2.57115934431624   -3.57286640729432    1.98256652717683
H        -2.46676996247604   -1.53534722189331    2.29149540560188
H        -3.00059456510066   -2.47841206265585    3.66489531765309
C         0.30160172618773   -3.03310121055296    5.48563340645089
H        -1.70639686705189   -3.57608260721516    5.03356386560903
H         2.31069721433269   -2.31130809213012    5.61994785073201
C        -3.81034058622864   -3.76101008991673    1.45331841351538
C        -1.76557570392990   -4.57943736937478    1.56329774955595
H         0.32275355783770   -3.58581570120195    6.41384621296956
C        -3.79772047566661   -4.89305436358265    0.68429009617258
H        -4.60882055933280   -3.07117991921503    1.65266216613281
C        -2.49307436021714   -5.41526570054789    0.75502744291969
H        -0.73488681042480   -4.62427169883106    1.85682111650930
H        -4.62196072229759   -5.29293713480911    0.12299199136078
H        -2.13240642974395   -6.29500521721632    0.25575250625382
107
 energy: -152.605428488989 gnorm: 0.038205556019 xtb: 6.4.0 (f63f532)
N        -0.94344037128397   -2.05475354665316   -0.30840643555874
C        -2.21121514803856   -1.63092859232237   -0.44192555322531
C        -3.11267754405444   -2.31287870770596   -1.26470328947811
C        -2.69333885457416   -3.42333320734284   -1.96238149785269
C        -1.37591526521619   -3.84134465452087   -1.82270037819239
C        -0.55010969505667   -3.12853337247273   -0.98221033978877
H         0.47491052730263   -3.42752201586613   -0.81885901709990
H        -1.00972462341540   -4.71394192562175   -2.33748114484478
H        -4.13792480211615   -1.99411769038098   -1.34630261904478
C        -2.57877654833795   -0.45257026164593    0.34070991495621
N        -1.58760896614472    0.12793767697769    1.05603007811816
C        -1.88207388852671    1.16752609368753    1.83172044812397
C        -3.15327944288646    1.69174057035742    1.95209875046040
C        -4.18405430396539    1.10785373186210    1.22433095931142
C        -3.89082620222434    0.02947248875583    0.41503056265923
H        -4.68344379267767   -0.45283281495246   -0.13105955709649
H        -3.33821893351116    2.52521369425988    2.61088574366554
H        -1.04925470748958    1.57712240507808    2.37976855537187
Ir        0.42150000000000   -0.81650000000000    0.91330000000000
H         0.87260000000000   -2.23030000000000    1.54050000000000
B         0.50944437095359    0.42996085800805   -0.77557223168564
O         0.16498867569654   -0.02352199086129   -2.03986751377352
C         0.01061714296409    1.09854973803234   -2.92532391846092
C         0.49237519068811    0.74871414117637   -4.32955978256203
H         1.50773316706478    0.36893254440897   -4.31121238726690
H         0.44605444725624    1.62838666787448   -4.96625119523006
H        -0.15006862320360   -0.02092118203525   -4.74893968398291
C        -1.49236447947688    1.40890087829646   -2.96763605329930
H        -1.71438399756830    2.21910043201061   -3.65523938227051
H        -2.02186025561998    0.51461425314179   -3.28923854895338
H        -1.84073707866409    1.66523571399093   -1.96939618327445
C         0.82861691317046    2.20943556962930   -2.19814722059064
O         0.76723943317296    1.78098138689468   -0.82761654598410
C         2.30852900168628    2.20043191087539   -2.59607960593656
H         2.71015201754320    1.20266672653085   -2.44184978905741
H         2.44752986500210    2.51721955918618   -3.62550481041211
H         2.85003752939636    2.87776773365031   -1.94058878138080
C         0.27366628104493    3.62417748482653   -2.32954310248943
H        -0.72562606652743    3.69713564349325   -1.91427620964278
H         0.91765960855963    4.30530193546756   -1.78026986247597
H         0.25673621310012    3.92313175781998   -3.37398445844193
B         1.56344776661798    0.62895379134141    1.86027103605515
O         2.92229332771968    0.58305918803844    2.11335961131969
C         3.36172807628791    1.89092016400045    2.51042276767632
C         4.52861118591513    1.78588448837329    3.48498116587618
H         4.27723707268278    1.15195169448040    4.32798860610767
H         5.38100752666332    1.34817032231708    2.97324382349991
H         4.80306529337808    2.77392636463459    3.84223989872692
C         3.80446528779350    2.59201709893820    1.22240196486616
H         4.20372020709745    3.58261745261736    1.41536272862261
H         4.56663331842271    1.98181728902842    0.74558493234336
H         2.95528875358912    2.63944674895487    0.54527601275473
C         2.05366003900391    2.50573614516242    3.09231876154184
O         1.04222558165540    1.80686240515654    2.34954334159570
C         1.89662492573956    4.00814459424966    2.89480582246634
H         1.86446214811576    4.25238274101906    1.83925560000428
H         0.96363767981465    4.33151303442592    3.34743733229854
H         2.72000463297555    4.53413031403156    3.36858449417292
C         1.84059128172701    2.14455333531208    4.56747702511547
H         1.94358096795807    1.07023452158837    4.69782551052376
H         2.54349535905250    2.66765170492649    5.20733871512867
H         0.82822903214185    2.41961158575006    4.85286248410974
B         2.27820000000000   -1.33090000000000    0.17409999999999
O         2.90352557136720   -2.54861345470840    0.39790252017981
C         4.25845394051734   -2.48076372316387   -0.08008415107636
C         5.11345565836782   -2.06149615717845    1.11995611394927
H         4.75242466560892   -1.10488306958057    1.48911167404425
H         4.98175791382548   -2.79627009455812    1.90942694981185
H         6.16542103772256   -2.00244287401120    0.85984210099716
C         4.71263369052475   -3.84183249839707   -0.59452463979445
H         4.74408267278644   -4.54076243868942    0.23591001757390
H         5.70636110939558   -3.76066806720113   -1.02506991764498
H         4.02708204725935   -4.22997287025567   -1.33921961546179
C         4.16139006556262   -1.35782166560461   -1.15629398061475
O         3.06142858518854   -0.57184595383811   -0.66891849862254
C         5.40614164773733   -0.49096851238173   -1.30906967187704
H         6.25415404521012   -1.10359822990239   -1.60051101031515
H         5.22916406231846    0.25454028145149   -2.07895271966846
H         5.63092822382939    0.02399267964944   -0.38250553832723
C         3.73838595637584   -1.89842981617594   -2.52892625590097
H         2.84733737995608   -2.51115301857860   -2.42038826207449
H         3.48463888327184   -1.05789726646060   -3.16987707362904
H         4.53414701389431   -2.47033679205260   -2.99508844503839
H        -3.37963082758026   -3.96555241967043   -2.59359114064178
H        -5.19469260657621    1.48066878397769    1.29914348051579
C         0.23590000000000   -1.68139999999997    2.96030000000004
C        -0.88725252197136   -2.37467517575220    3.47865399778491
C         1.37031331456940   -1.69600487653018    3.79423453609588
C        -2.26311671239174   -2.43237387363909    2.85024998594884
C        -0.82252217729151   -3.01728873753862    4.71471684776936
C         1.41337261292082   -2.30990946755463    5.03217935914761
H         2.27474460412755   -1.23901355401443    3.42526939201989
N        -2.56004309839601   -3.56506558670374    1.99189987903996
H        -2.45295548114177   -1.52407930015080    2.28743827725459
H        -2.99754673732207   -2.46094669992191    3.66654730497455
C         0.31520281175956   -3.01497978327943    5.49211247092987
H        -1.69351712099265   -3.56254581248558    5.05543056497004
H         2.32257458801274   -2.28774485999318    5.61554737428103
C        -3.79815548082570   -3.76091489621917    1.46730836827395
C        -1.75226027480016   -4.57051272493575    1.58054743865477
H         0.34260549809882   -3.56070867187850    6.42347518406821
C        -3.78313730330927   -4.89794419172950    0.70659434962377
H        -4.59887518984961   -3.07594277017166    1.66842580685924
C        -2.47725923809831   -5.41471794492927    0.77870133773352
H        -0.72308890392807   -4.61242162034917    1.87546267639129
H        -4.60760485043611   -5.30657206066257    0.15410764691254
H        -2.11551403767874   -6.29775303748260    0.28867814604205
107
 energy: -152.607136235017 gnorm: 0.036105403182 xtb: 6.4.0 (f63f532)
N        -0.92926643136427   -2.03809280240360   -0.33550372013527
C        -2.19394140090510   -1.60567967246985   -0.47650251802381
C        -3.09928927330932   -2.28390294252602   -1.29933220774429
C        -2.68797260522535   -3.39960043810287   -1.99187308885648
C        -1.37033226643874   -3.82161065450477   -1.85241734592616
C        -0.54251685641122   -3.11129223776245   -1.01148872886508
H         0.47982728922385   -3.41974064666897   -0.84720321517673
H        -1.00887173751837   -4.69637304752556   -2.36504147732434
H        -4.12075200136311   -1.95613529762686   -1.38425556862677
C        -2.55856970100632   -0.42957967018618    0.30154086933255
N        -1.56959110612604    0.14604033986409    1.02501401495622
C        -1.86974006719695    1.18265221878214    1.80102935139043
C        -3.14380933661755    1.69628073567024    1.93228890887755
C        -4.17465054146327    1.11050493035035    1.20306728982460
C        -3.87254210207106    0.04816693938336    0.37744021666464
H        -4.66042595189721   -0.43401351342984   -0.17457014772657
H        -3.33298550941237    2.51895385247399    2.60154545403649
H        -1.04030858904200    1.59779255610799    2.35004782430545
Ir        0.42150000000000   -0.81650000000000    0.91330000000000
H         0.87260000000000   -2.23030000000000    1.54050000000000
B         0.50352607075226    0.44503482919853   -0.75651127530931
O         0.14928044299473   -0.01205615232941   -2.01598421398073
C         0.00580509614893    1.10226612734959   -2.90599506282242
C         0.49352057350032    0.74604604707864   -4.30754780817288
H         1.50653334938635    0.36089890269980   -4.28628492859402
H         0.45232660486207    1.62766448847503   -4.94094106075765
H        -0.15269633340126   -0.01944521255027   -4.72806508001314
C        -1.49627261132583    1.42032380576049   -2.96404768379814
H        -1.70304549553616    2.22918135226475   -3.65705672251349
H        -2.02634382821769    0.52778062402492   -3.28864273324080
H        -1.85256343326877    1.68178935503040   -1.97024059352477
C         0.82455944128039    2.21476184730477   -2.18205592816867
O         0.77498163299691    1.79049256704466   -0.81370732041073
C         2.30223035709585    2.20976997347293   -2.59210929356149
H         2.70640169696260    1.21385291831596   -2.43373169832251
H         2.42960352373225    2.52038355233516   -3.62431000500584
H         2.84493274053485    2.89355445634322   -1.94481884267852
C         0.26614733186403    3.62868595480716   -2.31787261541529
H        -0.73082427872346    3.70426189055140   -1.89812841831517
H         0.91385268102690    4.31333347555944   -1.77789098392753
H         0.24427924734072    3.91599539705700   -3.36500584556563
B         1.56612000107648    0.63994499973819    1.85349999428921
O         2.92307486250825    0.59498853958944    2.09481422993042
C         3.36206639783841    1.89465550675349    2.51028230435819
C         4.52649676566658    1.78154956508775    3.48876071097541
H         4.27486898217096    1.13951114000835    4.32530859973464
H         5.38085255265033    1.35147776246933    2.97431704450826
H         4.79469538181405    2.76801212353746    3.85375928627864
C         3.81105341289653    2.61128289017839    1.23173585377658
H         4.20650349110618    3.59992177223883    1.43808877505596
H         4.57673278898912    2.00686402578724    0.75344338521759
H         2.96390414135981    2.66213994342137    0.55285509009081
C         2.05414127834372    2.50542045150294    3.09663493998374
O         1.04142929014548    1.80300041498680    2.36336004490369
C         1.89585706910357    4.00883000729043    2.90029685987522
H         1.85568968755607    4.25463582166073    1.84551189082625
H         0.96738262261776    4.33198091990659    3.36171444091433
H         2.72478704647757    4.53015659216641    3.36840689015704
C         1.85214704935396    2.14868537576065    4.57566074163796
H         1.95805657170693    1.07496289667739    4.70565231828764
H         2.55864547070240    2.67578990525658    5.20723770202668
H         0.84102783828841    2.42246908065493    4.86527434265663
B         2.27819999999999   -1.33090000000000    0.17409999999999
O         2.90521624636170   -2.54114418553804    0.40690780080276
C         4.25286518082112   -2.47885681773058   -0.08120401770386
C         5.11894550304166   -2.06294467128141    1.11330793816822
H         4.75921891262378   -1.10700872151736    1.48475873768789
H         4.99079619388509   -2.79917989136242    1.90149534991721
H         6.16784045322297   -2.00486818389713    0.84401175443038
C         4.70301776436161   -3.84098385261493   -0.59947052904242
H         4.73871286116562   -4.53883361578507    0.23122625594850
H         5.69425181023354   -3.75522376590578   -1.03343790971781
H         4.01481556655804   -4.22923871031219   -1.34131952534531
C         4.15638331998303   -1.35639479650357   -1.15764994791373
O         3.05039266101709   -0.57657819118464   -0.67901892341272
C         5.40146863428902   -0.48772148179140   -1.30371310401417
H         6.24807468160857   -1.10485884794053   -1.58810453162468
H         5.22903927567582    0.25441843315663   -2.07742161341245
H         5.62155778377043    0.02947488198486   -0.37759088006395
C         3.74749546701050   -1.89907296887165   -2.53486843226525
H         2.85708789444891   -2.51305374043942   -2.43247183216359
H         3.49930090064193   -1.05900092235233   -3.17826252831606
H         4.55040694981710   -2.46875886444685   -2.98991013628613
H        -3.37793603499242   -3.94285832778579   -2.61714848237099
H        -5.18848698900546    1.47023946689359    1.28963340302956
C         0.23589999999997   -1.68139999999994    2.96030000000007
C        -0.88468843354258   -2.36517048303141    3.49079672911678
C         1.37543116394841   -1.68674285775239    3.78900594009757
C        -2.25676031146778   -2.41645318231804    2.85637395041470
C        -0.81510876241369   -2.99875910228342    4.73096443154092
C         1.42405673297875   -2.28897578614428    5.03171254068325
H         2.27738796919342   -1.23268221587046    3.41087735514407
N        -2.54695861747731   -3.55457778509134    2.00419447369062
H        -2.43447777141384   -1.51046465466154    2.28410133920299
H        -2.99713445689794   -2.43580446521258    3.66787849462521
C         0.32735054537481   -2.99044083498475    5.50196826046678
H        -1.68487446979120   -3.54000382426495    5.08136656990363
H         2.33560477946231   -2.26016471776764    5.61133528927974
C        -3.78357159228534   -3.75993442342457    1.48126614539766
C        -1.73340437456379   -4.55790751106710    1.60071782848436
H         0.36123078175974   -3.52804562258236    6.43790647307640
C        -3.76326270675799   -4.90417994634251    0.73092869299038
H        -4.58818755674862   -3.07921037676808    1.68121177418514
C        -2.45464422691715   -5.41361569495911    0.80695610089221
H        -0.70433933027510   -4.59378139222487    1.89694793639144
H        -4.58742917235341   -5.32416944962201    0.18650354445774
H        -2.08937319006869   -6.30108287238381    0.32774084912495
107
 energy: -152.608764897173 gnorm: 0.035129305021 xtb: 6.4.0 (f63f532)
N        -0.91597284444088   -2.03077235123708   -0.35636976518711
C        -2.17653354463742   -1.58467526844588   -0.50998696231624
C        -3.08147327724974   -2.25097595461650   -1.34466698767340
C        -2.67750145525908   -3.37178759254033   -2.03324991959061
C        -1.36176444954789   -3.80292435955361   -1.88875211454853
C        -0.53254907695686   -3.10083774465420   -1.04067363226216
H         0.48902916815127   -3.41464617017912   -0.88014577449002
H        -1.00323269879280   -4.67667392959249   -2.40524947282374
H        -4.09701794982248   -1.90690252891297   -1.44130677698623
C        -2.53917869696694   -0.41019949119274    0.26741425882936
N        -1.55325479851158    0.15735149456358    1.00454394791666
C        -1.85620551216470    1.19963115958537    1.77385316557301
C        -3.13227523968312    1.70656227675138    1.90735621605611
C        -4.16189471970940    1.12065518591914    1.17351982221062