12
 energy: -17.479042707830 gnorm: 0.028557430575 xtb: 6.4.0 (f63f532)
N         0.73859000000000   -0.02158000000000   -0.00088000000000
C         2.17777000000000    0.01938000000000   -0.01862000000000
C        -0.09997000000000    1.05391000000000    0.00737000000000
N        -1.35938000000000    0.67772000000000    0.00583000000000
C        -1.32690000000000   -0.69326000000000    0.00047000000000
C        -0.03016000000000   -1.15068000000000    0.00156000000000
H         2.51652000000000    1.05820000000000    0.00340000000000
H         2.52467000000000   -0.46548000000000   -0.93473000000000
H         2.55096000000000   -0.51245000000000    0.86017000000000
H         0.24901000000000    2.07839000000000    0.01240000000000
H        -2.23855000000000   -1.27682000000000   -0.00394000000000
H         0.38841000000000   -2.14716000000000    0.00045000000000
12
 energy: -17.480348358476 gnorm: 0.008468833912 xtb: 6.4.0 (f63f532)
N         0.73881960777672   -0.01839111763579   -0.00232752180675
C         2.17989975285044    0.01628781090187   -0.01642630979772
C        -0.10543445384217    1.04023174039526    0.00312536922039
N        -1.36138756037520    0.66781477049884    0.00793826556092
C        -1.33383089714641   -0.69233566902996    0.00401892116658
C        -0.04057284875898   -1.13807344756610   -0.00504924817518
H         2.51466890211723    1.05129836614121    0.00743739626432
H         2.55555435283245   -0.46177340972142   -0.92296085906716
H         2.57485884059566   -0.50955805729368    0.85425951416316
H         0.23607509645602    2.05733592475132    0.00609578107708
H        -2.24175695590942   -1.26691351006222    0.00706126667397
H         0.37407616340365   -2.12575340137931   -0.00969257527960
12
 energy: -17.480417262812 gnorm: 0.002799968205 xtb: 6.4.0 (f63f532)
N         0.74092537480354   -0.01713896373374   -0.00302368419916
C         2.17925451668753    0.01570753964977   -0.01768676335631
C        -0.10461490310896    1.03608842808769    0.00477188580929
N        -1.35874855788234    0.66521544271119    0.00908209305837
C        -1.33370055097994   -0.69260159789136    0.00277411489093
C        -0.04154540223693   -1.13519656754334   -0.00263620755981
H         2.51133309692260    1.05128056953194    0.00564410091297
H         2.55859213286832   -0.46296351428719   -0.92227361254800
H         2.57662795470326   -0.50923397650269    0.85243000513216
H         0.23200961382414    2.05324514677547    0.00777455118833
H        -2.24169501940227   -1.26259302687173    0.00349609182164
H         0.37253174380104   -2.12163947992603   -0.00687257515041
12
 energy: -17.480423976941 gnorm: 0.001382171450 xtb: 6.4.0 (f63f532)
N         0.74171306748308   -0.01672245398095   -0.00419861724949
C         2.17892792499160    0.01545611074117   -0.01676931553552
C        -0.10424997986471    1.03559010685477    0.00339119772329
N        -1.35810969578260    0.66519920445898    0.00874826330380
C        -1.33346839509138   -0.69302916218222    0.00438449387517
C        -0.04128464278120   -1.13508491027782   -0.00518870598320
H         2.51150928824534    1.05106374046598    0.00714238807325
H         2.55967973560458   -0.46329722737682   -0.92083168366507
H         2.57541502567225   -0.50978358547759    0.85375867142077
H         0.22983982994014    2.05399787703690    0.00598980070242
H        -2.24226355614843   -1.26148833549835    0.00816170821846
H         0.37326139773133   -2.12173136476405   -0.01110820088388
12
 energy: -17.480426097174 gnorm: 0.000858898756 xtb: 6.4.0 (f63f532)
N         0.74236528569887   -0.01621910436066   -0.00530882978486
C         2.17865412493745    0.01503010897947   -0.01701886421375
C        -0.10403324202037    1.03559106739380    0.00373901979005
N        -1.35788147908216    0.66556391234601    0.01062592925696
C        -1.33314756107637   -0.69366662440876    0.00397953120186
C        -0.04088927179674   -1.13522108968905   -0.00481861346630
H         2.51287709455432    1.05040934540822    0.00610941457501
H         2.56016241371886   -0.46485281800368   -0.92031152208437
H         2.57462525348211   -0.50959419322809    0.85442399431431
H         0.22671422519481    2.05573949503050    0.00609422323013
H        -2.24303559535151   -1.26059001346622    0.00730243192112
H         0.37455875174073   -2.12202008600153   -0.01133671474016
12
 energy: -17.480426647094 gnorm: 0.000223947078 xtb: 6.4.0 (f63f532)
N         0.74207315058169   -0.01624058562595   -0.00532925912389
C         2.17883931112360    0.01500376078482   -0.01704584474536
C        -0.10416144360659    1.03582905685229    0.00403482169365
N        -1.35814219455548    0.66556584787300    0.00964266815357
C        -1.33314188254703   -0.69362160053928    0.00428675460177
C        -0.04097224531373   -1.13517180714437   -0.00497317024322
H         2.51313441109710    1.05029870492220    0.00572092522950
H         2.56016992066020   -0.46520352504315   -0.92023260224967
H         2.57459597281984   -0.50930579873378    0.85462462587336
H         0.22688800537884    2.05561534239466    0.00674378862319
H        -2.24284420517166   -1.26091937617736    0.00759830323925
H         0.37453119953321   -2.12168001956307   -0.01159101105215
