101
 energy: -154.384108375541 gnorm: 0.000914939920 xtb: 6.4.1 (1a32961)
N        -0.96510000000003   -2.11529999999991   -0.24089999999995
C        -2.24699999999990   -1.69839999999999   -0.36219999999999
C        -3.14039999999996   -2.36819999999998   -1.21199999999995
C        -2.70219999999996   -3.47559999999999   -1.93050000000008
C        -1.37779999999998   -3.89879999999997   -1.78759999999982
C        -0.54290000000003   -3.18669999999998   -0.93509999999996
H         0.49810000000000   -3.45630000000000   -0.78940000000002
H        -0.99570000000002   -4.76029999999997   -2.32769999999996
H        -4.16500000000002   -2.02889999999998   -1.31829999999999
C        -2.62130000000004   -0.50950000000001    0.44099999999997
N        -1.62600000000002    0.07329999999997    1.16019999999996
C        -1.89679999999991    1.15240000000005    1.91690000000002
C        -3.17229999999994    1.70329999999990    1.99649999999998
C        -4.20510000000000    1.11739999999997    1.26269999999994
C        -3.92610000000000    0.00250000000000    0.47820000000004
H        -4.71960000000001   -0.46419999999999   -0.09519999999999
H        -3.34630000000000    2.57509999999997    2.62069999999997
H        -1.04449999999999    1.57419999999999    2.43690000000001
Ir        0.42150000000000   -0.81650000000000    0.91330000000001
H         0.87260000000000   -2.23030000000000    1.54050000000000
B         0.50670000000000    0.41559999999999   -0.81540000000000
O         0.19500000000000   -0.04699999999999   -2.09150000000001
C         0.00649999999994    1.10039999999996   -2.95429999999995
C         0.49020000000009    0.74740000000002   -4.35779999999998
H         1.51609999999999    0.37379999999999   -4.33700000000000
H         0.44729999999998    1.62239999999996   -5.01670000000001
H        -0.14740000000005   -0.03389999999992   -4.78429999999999
C        -1.50119999999991    1.39559999999992   -2.96669999999997
H        -1.75370000000000    2.21460000000000   -3.64850000000002
H        -2.03200000000001    0.49450000000004   -3.28930000000000
H        -1.85169999999998    1.65210000000000   -1.96220000000001
C         0.84229999999985    2.20669999999995   -2.22040000000014
O         0.75200000000001    1.78259999999996   -0.83690000000005
C         2.32929999999998    2.18620000000005   -2.59900000000003
H         2.74129999999998    1.18499999999998   -2.45750000000000
H         2.48869999999999    2.51299999999998   -3.63179999999995
H         2.87200000000001    2.86270000000000   -1.93200000000002
C         0.28440000000011    3.62290000000001   -2.33659999999998
H        -0.72649999999997    3.69040000000000   -1.92909999999999
H         0.92130000000002    4.31480000000002   -1.77610000000003
H         0.26429999999998    3.94810000000000   -3.38319999999999
B         1.56300000000002    0.60959999999999    1.84840000000002
O         2.92779999999997    0.55230000000003    2.15020000000001
C         3.36329999999982    1.88659999999998    2.50259999999993
C         4.53139999999996    1.78589999999998    3.47740000000010
H         4.27910000000002    1.16089999999997    4.33690000000004
H         5.39389999999995    1.33790000000003    2.97340000000003
H         4.82389999999999    2.77870000000003    3.83820000000002
C         3.79700000000002    2.56849999999997    1.19669999999995
H         4.20020000000000    3.57089999999999    1.37680000000000
H         4.56739999999999    1.95560000000001    0.72109999999999
H         2.95239999999998    2.63260000000000    0.50539999999997
C         2.05039999999999    2.50090000000002    3.09319999999996
O         1.03749999999996    1.81619999999996    2.31910000000001
C         1.89099999999995    4.00449999999996    2.88649999999994
H         1.87289999999999    4.25440000000001    1.82410000000001
H         0.94939999999995    4.34259999999999    3.33169999999998
H         2.71079999999998    4.55150000000000    3.36629999999999
C         1.82470000000006    2.13199999999997    4.56520000000009
H         1.92610000000000    1.05329999999998    4.71319999999999
H         2.52610000000000    2.65280000000001    5.22540000000000
H         0.80630000000002    2.41579999999999    4.84900000000001
B         2.27820000000002   -1.33090000000000    0.17410000000000
O         2.89459999999999   -2.57740000000000    0.38450000000001
C         4.26929999999998   -2.48200000000001   -0.07209999999995
C         5.10900000000001   -2.05379999999997    1.14009999999993
H         4.76350000000000   -1.08740000000002    1.51749999999998
H         4.98050000000000   -2.79470000000003    1.93589999999997
H         6.17420000000000   -1.99290000000000    0.89299999999998
C         4.71949999999997   -3.84660000000001   -0.58469999999998
H         4.75280000000001   -4.56130000000000    0.24420000000000
H         5.72329999999999   -3.78370000000000   -1.02010000000001
H         4.03500000000002   -4.23600000000000   -1.34169999999998
C         4.16440000000003   -1.36220000000000   -1.16300000000004
O         3.08520000000006   -0.55030000000003   -0.65400000000002
C         5.40719999999997   -0.48869999999997   -1.31549999999999
H         6.27320000000003   -1.09010000000000   -1.61530000000000
H         5.23300000000001    0.26929999999999   -2.08590000000000
H         5.64270000000000    0.02649999999999   -0.38240000000007
C         3.71800000000008   -1.89830000000006   -2.53110000000004
H         2.82529999999992   -2.52160000000000   -2.42739999999998
H         3.46089999999998   -1.05250000000005   -3.17550000000000
H         4.50570000000009   -2.48290000000002   -3.01789999999999
H        -3.38499999999998   -4.00130000000003   -2.59310000000003
H        -5.21400000000000    1.52079999999997    1.29960000000000
C         0.23590000000000   -1.68139999999999    2.96030000000000
C        -0.99443698935581   -2.14384547532617    3.42312374148286
C         1.24842984498525   -1.59968944315061    3.91708143355615
C        -1.19971327444638   -2.41913122625132    4.78056704881997
H        -1.82635935692978   -2.32656537968382    2.75285338211446
N         1.07988086468645   -1.81716696325177    5.21928953945819
H         2.26043166472669   -1.34437183984080    3.62780014307979
C        -2.50439688069029   -2.94393098187268    5.23611647836709
C        -0.11939985620213   -2.20126633734338    5.62940289117231
O        -3.55355892436588   -2.75616056011139    4.65382281845521
O        -2.39112310482639   -3.68335485246477    6.34502415332263
F        -0.23777501555184   -2.36251145421687    6.96023293842971
C        -3.58149607963576   -4.25119125506799    6.88998986705951
H        -4.22044851102816   -4.62821288014728    6.08812540472821
H        -4.12268787917807   -3.49286748419626    7.46056343094440
H        -3.25081708087023   -5.05777319217692    7.54444501413870
