99
 energy: -144.431340253476 gnorm: 0.076058430305 xtb: 6.4.1 (1a32961)
N        -0.96510000000000   -2.11530000000000   -0.24090000000000
C        -2.24700000000000   -1.69840000000000   -0.36220000000000
C        -3.14040000000000   -2.36820000000000   -1.21200000000000
C        -2.70220000000000   -3.47560000000000   -1.93050000000000
C        -1.37780000000000   -3.89880000000000   -1.78760000000000
C        -0.54290000000000   -3.18670000000000   -0.93510000000000
H         0.49810000000000   -3.45630000000000   -0.78940000000000
H        -0.99570000000000   -4.76030000000000   -2.32770000000000
H        -4.16500000000000   -2.02890000000000   -1.31830000000000
C        -2.62130000000000   -0.50950000000000    0.44100000000000
N        -1.62600000000000    0.07330000000000    1.16020000000000
C        -1.89680000000000    1.15240000000000    1.91690000000000
C        -3.17230000000000    1.70330000000000    1.99650000000000
C        -4.20510000000000    1.11740000000000    1.26270000000000
C        -3.92610000000000    0.00250000000000    0.47820000000000
H        -4.71960000000000   -0.46420000000000   -0.09520000000000
H        -3.34630000000000    2.57510000000000    2.62070000000000
H        -1.04450000000000    1.57420000000000    2.43690000000000
Ir        0.42150000000000   -0.81650000000000    0.91330000000000
H         0.87260000000000   -2.23030000000000    1.54050000000000
B         0.50670000000000    0.41560000000000   -0.81540000000000
O         0.19500000000000   -0.04700000000000   -2.09150000000000
C         0.00650000000000    1.10040000000000   -2.95430000000000
C         0.49020000000000    0.74740000000000   -4.35780000000000
H         1.51610000000000    0.37380000000000   -4.33700000000000
H         0.44730000000000    1.62240000000000   -5.01670000000000
H        -0.14740000000000   -0.03390000000000   -4.78430000000000
C        -1.50120000000000    1.39560000000000   -2.96670000000000
H        -1.75370000000000    2.21460000000000   -3.64850000000000
H        -2.03200000000000    0.49450000000000   -3.28930000000000
H        -1.85170000000000    1.65210000000000   -1.96220000000000
C         0.84230000000000    2.20670000000000   -2.22040000000000
O         0.75200000000000    1.78260000000000   -0.83690000000000
C         2.32930000000000    2.18620000000000   -2.59900000000000
H         2.74130000000000    1.18500000000000   -2.45750000000000
H         2.48870000000000    2.51300000000000   -3.63180000000000
H         2.87200000000000    2.86270000000000   -1.93200000000000
C         0.28440000000000    3.62290000000000   -2.33660000000000
H        -0.72650000000000    3.69040000000000   -1.92910000000000
H         0.92130000000000    4.31480000000000   -1.77610000000000
H         0.26430000000000    3.94810000000000   -3.38320000000000
B         1.56300000000000    0.60960000000000    1.84840000000000
O         2.92780000000000    0.55230000000000    2.15020000000000
C         3.36330000000000    1.88660000000000    2.50260000000000
C         4.53140000000000    1.78590000000000    3.47740000000000
H         4.27910000000000    1.16090000000000    4.33690000000000
H         5.39390000000000    1.33790000000000    2.97340000000000
H         4.82390000000000    2.77870000000000    3.83820000000000
C         3.79700000000000    2.56850000000000    1.19670000000000
H         4.20020000000000    3.57090000000000    1.37680000000000
H         4.56740000000000    1.95560000000000    0.72110000000000
H         2.95240000000000    2.63260000000000    0.50540000000000
C         2.05040000000000    2.50090000000000    3.09320000000000
O         1.03750000000000    1.81620000000000    2.31910000000000
C         1.89100000000000    4.00450000000000    2.88650000000000
H         1.87290000000000    4.25440000000000    1.82410000000000
H         0.94940000000000    4.34260000000000    3.33170000000000
H         2.71080000000000    4.55150000000000    3.36630000000000
C         1.82470000000000    2.13200000000000    4.56520000000000
H         1.92610000000000    1.05330000000000    4.71320000000000
H         2.52610000000000    2.65280000000000    5.22540000000000
H         0.80630000000000    2.41580000000000    4.84900000000000
B         2.27820000000000   -1.33090000000000    0.17410000000000
O         2.89460000000000   -2.57740000000000    0.38450000000000
C         4.26930000000000   -2.48200000000000   -0.07210000000000
C         5.10900000000000   -2.05380000000000    1.14010000000000
H         4.76350000000000   -1.08740000000000    1.51750000000000
H         4.98050000000000   -2.79470000000000    1.93590000000000
H         6.17420000000000   -1.99290000000000    0.89300000000000
C         4.71950000000000   -3.84660000000000   -0.58470000000000
H         4.75280000000000   -4.56130000000000    0.24420000000000
H         5.72330000000000   -3.78370000000000   -1.02010000000000
H         4.03500000000000   -4.23600000000000   -1.34170000000000
C         4.16440000000000   -1.36220000000000   -1.16300000000000
O         3.08520000000000   -0.55030000000000   -0.65400000000000
C         5.40720000000000   -0.48870000000000   -1.31550000000000
H         6.27320000000000   -1.09010000000000   -1.61530000000000
H         5.23300000000000    0.26930000000000   -2.08590000000000
H         5.64270000000000    0.02650000000000   -0.38240000000000
C         3.71800000000000   -1.89830000000000   -2.53110000000000
H         2.82530000000000   -2.52160000000000   -2.42740000000000
H         3.46090000000000   -1.05250000000000   -3.17550000000000
H         4.50570000000000   -2.48290000000000   -3.01790000000000
H        -3.38500000000000   -4.00130000000000   -2.59310000000000
H        -5.21400000000000    1.52080000000000    1.29960000000000
C         0.23590000000000   -1.68140000000000    2.96030000000000
C        -1.00357860406953   -2.08625624327482    3.44545274725895
C         1.34216630445700   -1.80975082708449    3.81628366000743
C        -1.08143347040299   -2.56649385341161    4.75803384975829
H        -1.89558932891644   -2.06682004941407    2.83113146141082
N         1.32095525577153   -2.28794619754322    5.05750511371546
H         2.32810441686971   -1.53884361171502    3.45625216578633
C         0.11834644271787   -2.66912658376464    5.48913010888713
C        -2.10195335267174   -3.10984798913389    5.58839660890840
N        -0.15328929231323   -3.25733122585623    6.68758092947321
C        -1.49513916354518   -3.52317115258221    6.74217092478736
H        -3.14879479651755   -3.18437758617778    5.35240674324488
H         0.53373377434985   -3.48299633253647    7.38805316646475
H        -1.92409812548272   -3.99712596189806    7.60769367004877
99
 energy: -144.437842268914 gnorm: 0.046263921491 xtb: 6.4.1 (1a32961)
N        -0.96118807863075   -2.09967277444350   -0.25093154640690
C        -2.23986501365608   -1.68991410802180   -0.36411934930896
C        -3.13469752553501   -2.36193936163071   -1.20588613174331
C        -2.70440402244462   -3.46328603117729   -1.92149654507039
C        -1.38414695303048   -3.88194491782239   -1.78228582723472
C        -0.55390792421729   -3.16758798906779   -0.94065020770897
H         0.47983667351060   -3.44763350330651   -0.79121307694546
H        -1.00778381785682   -4.74201481718502   -2.31751373476542
H        -4.15521978320240   -2.02647102217862   -1.30995781398113
C        -2.61107848100495   -0.51275572611941    0.43483191403459
N        -1.61780962904689    0.06832990077798    1.14509077705033
C        -1.89673053182105    1.13878423227435    1.89324169360614
C        -3.16393348488165    1.68706471025547    1.98264346125296
C        -4.19567085602336    1.10298496542492    1.25604144646473
C        -3.91442244897169   -0.00333983063837    0.47570394130488
H        -4.70598132162556   -0.46701633972881   -0.09278999653354
H        -3.33885162955161    2.55000636131522    2.60978239893104
H        -1.05377277595238    1.55662926746951    2.42278365215850
Ir        0.42150000000000   -0.81650000000000    0.91330000000000
H         0.87260000000000   -2.23030000000000    1.54050000000000
B         0.49200212887788    0.42416864575950   -0.79041884132735
O         0.17558756862833   -0.03469636059427   -2.06283238077880
C         0.01051499374629    1.09704145603400   -2.94349740559170
C         0.48947428614671    0.74746037253581   -4.34843084880663
H         1.50841953881968    0.37070688489363   -4.32699724895650
H         0.44460182027681    1.62295013179677   -4.99684797689778
H        -0.14933105074310   -0.02855150764095   -4.76870122125099
C        -1.49364360466600    1.39936604914871   -2.96977799266006
H        -1.73215140332643    2.21233910815197   -3.65390186942287
H        -2.02361370876236    0.50216970214093   -3.28959276379276
H        -1.84017853312134    1.65408440425045   -1.96806996764903
C         0.83201047631056    2.20711383290497   -2.21246274523247
O         0.75552735952409    1.78032718444570   -0.83533138437781
C         2.31446881446907    2.19100414773266   -2.60007396292344
H         2.71869746208102    1.19190686665073   -2.44994965766774
H         2.46600142715002    2.51236746982002   -3.62987365169684
H         2.85666572099324    2.86569005900789   -1.93857352598034
C         0.28036764462023    3.62315626648466   -2.33950286690562
H        -0.72288628859895    3.69200740809669   -1.92709784979706
H         0.91999126707714    4.30675582859450   -1.78275517598432
H         0.26267063031177    3.93560228654410   -3.38374057657495
B         1.56364404144695    0.61439608430225    1.86041213015026
O         2.92525710655985    0.56496277886906    2.13601398827244
C         3.36321359097712    1.88625525400699    2.50947453286856
C         4.53289541112154    1.78855675729143    3.48024427234474
H         4.28035636121696    1.15912750376617    4.32955346981120
H         5.38795893405573    1.34470564191852    2.97217494634592
H         4.81521127782610    2.77898088040886    3.83656908187879
C         3.79874005740966    2.57407106217318    1.21105222013739
H         4.20009842758534    3.56973508348184    1.39533609471362
H         4.56281092303218    1.96265568775838    0.73398331346963
H         2.95055740113556    2.62645598509462    0.52971811299014
C         2.05333598662888    2.50437834206622    3.09007593496091
O         1.04038706306453    1.80826362564008    2.33745242674599
C         1.89402918317467    4.00657626440992    2.88929528474317
H         1.86848433702670    4.25010071823572    1.83095614177793
H         0.95663246371332    4.33574815604748    3.33601963237231
H         2.71463550292852    4.54275286658776    3.36533563846728
C         1.83269567645748    2.13964575949304    4.56224802930499
H         1.93597544822296    1.06380191937050    4.70050915744366
H         2.53369474086793    2.66147518136847    5.21114263804476
H         0.81795737036315    2.41783540039088    4.84671943983925
B         2.27820000000000   -1.33090000000000    0.17410000000000
O         2.90092337076396   -2.56183923711486    0.39007895026646
C         4.26561355393515   -2.48339802093512   -0.07790081824861
C         5.11012997279717   -2.05879791250205    1.12793071032906
H         4.75395800903243   -1.09881249309139    1.49926473182435
H         4.97840681218569   -2.79368682369549    1.92128875556822
H         6.16787235807373   -1.99868175249248    0.87591244115850
C         4.72025919557362   -3.84546173369696   -0.58807278926268
H         4.74983813701381   -4.54964029080516    0.24210434713773
H         5.71803791564140   -3.77370886669947   -1.02023318265448
H         4.03449724666402   -4.23289993612991   -1.33679261577484
C         4.16629622039130   -1.36031028279853   -1.15797896062671
O         3.07397304016036   -0.56366941623930   -0.66227364252623
C         5.40947892872224   -0.49194697926911   -1.31575074752477
H         6.26564012838683   -1.09777461021078   -1.61143239354134
H         5.23096990428272    0.25916656743651   -2.08405066458896
H         5.63703691921709    0.02244912798332   -0.38660600393846
C         3.72933080676771   -1.89939263641991   -2.52618114385795
H         2.83723294146139   -2.51475437192378   -2.41743155493748
H         3.47195046207487   -1.05780706711888   -3.16793786506546
H         4.51940041065720   -2.47650764186313   -3.00382757750717
H        -3.38372976379986   -3.98818349135640   -2.57939861530835
H        -5.19973041793898    1.50405771411749    1.29689857037290
C         0.23590000000001   -1.68140000000001    2.96030000000001
C        -1.00327880443264   -2.08857558850033    3.44115649695498
C         1.34192636777864   -1.80304606312469    3.82618581587434
C        -1.08475852176219   -2.56475223028324    4.75366448376159
H        -1.89255649806751   -2.07383916292420    2.82398727642805
N         1.31669993405558   -2.27534236819461    5.06339615577152
H         2.32640556984707   -1.52846612778056    3.46994254550527
C         0.11759115803153   -2.66007464460167    5.49179690039493
C        -2.10371779098617   -3.11095321100233    5.58523823850758
N        -0.15796565279176   -3.24552302259539    6.68913300749414
C        -1.49863223053948   -3.51668666892072    6.73866830685277
H        -3.14710838839609   -3.19172624576161    5.34797700840307
H         0.52590143352896   -3.46692483319108    7.39281293357580
H        -1.92730713205235   -3.98915197187182    7.60240436130475
99
 energy: -144.439617410920 gnorm: 0.036532397109 xtb: 6.4.1 (1a32961)
N        -0.95282256863404   -2.09123104197757   -0.25904815936747
C        -2.22983238259449   -1.68293854865636   -0.36707420572081
C        -3.13004507011554   -2.35426396203421   -1.20308781497837
C        -2.70827080249283   -3.45302789197903   -1.91918881460051
C        -1.38810235938263   -3.87179091121166   -1.78395195389886
C        -0.55790781864348   -3.15756310204611   -0.94762454135355
H         0.47457982413739   -3.44146539871201   -0.80619401074717
H        -1.01748496649462   -4.73148680308597   -2.31737322221077
H        -4.14944769349458   -2.02008489217203   -1.29862270266558
C        -2.59743324912706   -0.51493910040873    0.42798471069654
N        -1.60651369469095    0.06186181661781    1.13921986409957
C        -1.89206227263229    1.12651233476437    1.88298352909523
C        -3.15501750979239    1.67491412611203    1.97562815534185
C        -4.18743872360250    1.09119055627552    1.24967940397650
C        -3.90178185377220   -0.00828624699949    0.46915346006122
H        -4.69089044814283   -0.47421844649167   -0.09647062433328
H        -3.33071642108712    2.53298985857148    2.60366557969498
H        -1.05422851201468    1.54991994887748    2.41303522943507
Ir        0.42150000000000   -0.81650000000000    0.91330000000000
H         0.87260000000000   -2.23030000000000    1.54050000000000
B         0.49553488758983    0.43488573367655   -0.76817823789321
O         0.15594234124967   -0.02424017974157   -2.03320739300434
C         0.00547530146713    1.09504865419290   -2.92361338318393
C         0.48923176855111    0.74042120527680   -4.32603675688402
H         1.50443857900097    0.35997413495434   -4.30559321640199
H         0.44446394468241    1.61903895955238   -4.96460589675514
H        -0.15357658418873   -0.02945058311202   -4.74483359387420
C        -1.49699163365363    1.40675157049815   -2.96915960816137
H        -1.71719531907373    2.21602911524263   -3.65880848205914
H        -2.02633948333015    0.51196652955953   -3.28990520119084
H        -1.84599048592484    1.66479477442350   -1.97146803848293
C         0.82395760304111    2.20748134828330   -2.19952761793303
O         0.75942283327453    1.78509777788248   -0.82717488147304
C         2.30379513014878    2.19662963209216   -2.59774318980524
H         2.70530039770830    1.19920640783419   -2.44059520962353
H         2.44187335869424    2.51051724411372   -3.62851719589211
H         2.84592232129266    2.87595138442060   -1.94461578407266
C         0.26956795669567    3.62201629657565   -2.33562804685032
H        -0.72947202112486    3.69661218566704   -1.91956594322321
H         0.91438416053381    4.30434692373808   -1.78848504877695
H         0.25221073194120    3.91775670676976   -3.38124668833223
B         1.56687291179025    0.62192419001083    1.86444677490557
O         2.92370372180131    0.57576712152805    2.12339589421547
C         3.36229392350625    1.88702115503544    2.51202471408521
C         4.53016187657823    1.78740375172843    3.48558634381109
H         4.28069979555609    1.15196309329063    4.32835191916056
H         5.38316099174406    1.35174499381032    2.97273273358654
H         4.80210229587592    2.77706099460430    3.84141947126200
C         3.80246634618144    2.58610024888252    1.22140548683757
H         4.20024574150545    3.57774460135740    1.41431284962717
H         4.56572004528223    1.97761458631326    0.74401989416218
H         2.95277281944823    2.63313441178746    0.54467272248329
C         2.05444999199882    2.50311172610966    3.09260972283556
O         1.04244504650974    1.80067759307368    2.35374799912049
C         1.89628748237957    4.00525720586639    2.89020921017018
H         1.86252829474036    4.24718206796438    1.83391536588206
H         0.96398854331358    4.33052902704170    3.34352606719307
H         2.72071770491351    4.53270291280179    3.36126035724567
C         1.84514629485570    2.14656164811189    4.56924674386270
H         1.95213138801357    1.07232928867353    4.70214527699233
H         2.54842165183590    2.67267667500750    5.20670799495523
H         0.83229308804938    2.42082953768978    4.85532350956541
B         2.27820000000000   -1.33090000000000    0.17409999999999
O         2.90327171381228   -2.54968888746381    0.39848539095367
C         4.25864290289147   -2.48144058998928   -0.07882160630036
C         5.11414620586056   -2.06075077147998    1.12016921063908
H         4.75326037699227   -1.10368583001589    1.48880040197578
H         4.98316929259947   -2.79409062280170    1.91149246051635
H         6.16614028639701   -2.00177207011823    0.85899111684354
C         4.71221556429558   -3.84316391417382   -0.59212307140125
H         4.74439608237765   -4.54085619062843    0.23955193571731
H         5.70583860373206   -3.76208556466045   -1.02339628669478
H         4.02624197610576   -4.23215692714132   -1.33628735248721
C         4.16167777931094   -1.36018515379843   -1.15682867507209
O         3.06196877642284   -0.57304983012636   -0.67092544682818
C         5.40620751791539   -0.49328581968400   -1.31043326932477
H         6.25460734707782   -1.10640119649765   -1.60059969872388
H         5.22898861772124    0.25109568051857   -2.08160791911711
H         5.63034400482287    0.02326866525362   -0.38440914652454
C         3.73945604004859   -1.90279907086002   -2.52893129227438
H         2.84837711030514   -2.51541328535696   -2.41940763104504
H         3.48576407232872   -1.06296187210415   -3.17096266280712
H         4.53580168309323   -2.47549009252294   -2.99371386586773
H        -3.38937621444232   -3.97847319702162   -2.57030083310661
H        -5.19036239073636    1.48735161759081    1.29509099506845
C         0.23590000000002   -1.68140000000002    2.96030000000002
C        -1.00240671033257   -2.09435920809157    3.43534870119371
C         1.33948410319149   -1.78924413959740    3.83711462180338
C        -1.09002728609953   -2.56290067988945    4.74939691862268
H        -1.88759488108619   -2.08989457715963    2.81200949644614
N         1.30781905169367   -2.25236690442064    5.07349851099208
H         2.32259293055432   -1.50806008466511    3.48444182309221
C         0.11146854342512   -2.64413965454552    5.49787426389447
C        -2.10844900146771   -3.11316733917669    5.57945243990131
N        -0.16866885273196   -3.22405881485816    6.69568079181071
C        -1.50713760363782   -3.50612401447437    6.73757266884646
H        -3.14855154257033   -3.20493735292597    5.33637091590487
H         0.51144735362749   -3.43635619829853    7.40538846966823
H        -1.93666861605439   -3.97680542801655    7.60064805789039
99
 energy: -144.440349289856 gnorm: 0.036181859194 xtb: 6.4.1 (1a32961)
N        -0.94308843550550   -2.08789650289219   -0.26908243392708
C        -2.22105577847175   -1.67975193671964   -0.37119201690971
C        -3.12665830518736   -2.35105839389481   -1.20270774802403
C        -2.71103375235714   -3.44988884293414   -1.92046882437531
C        -1.38878364773086   -3.86846215143981   -1.79213252126656
C        -0.55433449770809   -3.15325268049121   -0.96095153625302
H         0.47822564353804   -3.44099722951871   -0.82546148051513
H        -1.02255810435989   -4.72897866690217   -2.32603872338073
H        -4.14596665056327   -2.01519327533090   -1.29143164819140
C        -2.58650927265059   -0.51591079752675    0.42393172664077
N        -1.59596804611370    0.06060836806574    1.13660170710960
C        -1.88497990168049    1.12432223182987    1.87911859975419
C        -3.14835896336417    1.67016184919975    1.97438392484743
C        -4.18163143944890    1.08457700117259    1.24835494752506
C        -3.89242704170390   -0.01121719993014    0.46577742756776
H        -4.67902705515052   -0.47822874469320   -0.10203357972680
H        -3.32550911641970    2.52551965796993    2.60442332217394
H        -1.05041595327085    1.54988514110251    2.41309540108477
Ir        0.42150000000000   -0.81649999999999    0.91330000000000
H         0.87260000000000   -2.23030000000000    1.54050000000000
B         0.48153488707619    0.44962063044614   -0.74863673738990
O         0.13352806621326   -0.01478945529779   -2.00923431265570
C        -0.00403331258004    1.09609121497779   -2.90613645742539
C         0.48686782375219    0.73153137347758   -4.30439926887212
H         1.49948614210457    0.34518463588244   -4.27792542450688
H         0.44915692476346    1.61010090234105   -4.94268608390284
H        -0.15913904839187   -0.03530848269332   -4.72319931171121
C        -1.50529692879546    1.41616658889233   -2.96794966721470
H        -1.71063879600956    2.22341485583169   -3.66379144014945
H        -2.03555106122807    0.52289381967770   -3.29049640937347
H        -1.86236774769669    1.68046950279777   -1.97499021978952
C         0.81529626171468    2.21082937857598   -2.18632242403407
O         0.75978642789175    1.79473342382052   -0.81518549935627
C         2.29352190825187    2.20196338593313   -2.59409668525665
H         2.69735363290299    1.20658839304509   -2.43082196740481
H         2.42200567597909    2.50793390322147   -3.62798362785476
H         2.83678988500848    2.88852673770638   -1.94987524019084
C         0.25920984212904    3.62497828425170   -2.32959170006764
H        -0.73746283193381    3.70324975338056   -1.90912587676683
H         0.90780213447480    4.31148284321025   -1.79251689838870
H         0.23693534074142    3.90829710979786   -3.37819337082857
B         1.56759119276007    0.62269039565901    1.87316452841961
O         2.92523854963166    0.58180104460450    2.11222880064747
C         3.36258448878496    1.88754069027817    2.51343163010978
C         4.53003810749090    1.78397741154768    3.48867246848009
H         4.28248286128091    1.14099067924232    4.32601360808926
H         5.38544618797984    1.35691994658824    2.97295836538388
H         4.79445191251705    2.77282245018077    3.85125872470614
C         3.80612145414789    2.59900167528000    1.22964584226991
H         4.19994246594278    3.58958529651928    1.43264775969393
H         4.57274144775433    1.99601023467780    0.75097027406821
H         2.95775996115975    2.64753543124922    0.55182967472991
C         2.05573307059499    2.50152583149698    3.09839055153751
O         1.04205209666009    1.79340836853177    2.37125562375238
C         1.89544239793291    4.00394090300508    2.89279233550212
H         1.85264423995331    4.24380856447052    1.83643777889234
H         0.96763784033158    4.33009582753642    3.35415989296396
H         2.72519962297812    4.52934419464699    3.35582193239291
C         1.85772943130288    2.15242284115373    4.57945271617105
H         1.96905730161813    1.07929060177923    4.71520030828821
H         2.56459677820957    2.68456555623882    5.20704372020064
H         0.84615175692515    2.42497108245734    4.87037893210673
B         2.27820000000000   -1.33090000000000    0.17409999999998
O         2.90515846573461   -2.54309297122462    0.40767593490938
C         4.25411391131735   -2.48033863469775   -0.07883176274476
C         5.11971411875244   -2.06149346509413    1.11464424597720
H         4.76030764384312   -1.10475575443834    1.48498156366815
H         4.99256448944451   -2.79541489548914    1.90562716764239
H         6.16891673086958   -2.00344263176145    0.84491739302366
C         4.70375885985374   -3.84372280048763   -0.59406679973372
H         4.73997425512218   -4.53982699470041    0.23837648341429
H         5.69486561608712   -3.75955438732812   -1.02931964305957
H         4.01471189125677   -4.23321787056479   -1.33481727438608
C         4.15750272418071   -1.36031147983126   -1.15800818825568
O         3.05236733016171   -0.57811720018339   -0.68084894622190
C         5.40219035074359   -0.49169219507299   -1.30651543747888
H         6.24997308128261   -1.10853089425106   -1.58924836721692
H         5.22905342187972    0.24887189457876   -2.08192026845798
H         5.62138372720551    0.02799335934782   -0.38134943332441
C         3.74828315840293   -1.90633768033109   -2.53376756168350
H         2.85777945893022   -2.52011956133407   -2.42984269437920
H         3.49985015956244   -1.06773627218843   -3.17915628896859
H         4.55116716699194   -2.47753648929540   -2.98780464992866
H        -3.39582883384582   -3.97513406249371   -2.56733994081130
H        -5.18542348626531    1.47714480541900    1.29597036315048
C         0.23590000000003   -1.68140000000003    2.96030000000003
C        -1.00153770146019   -2.10252526847462    3.42894261410454
C         1.33499647340550   -1.77212169031477    3.84676152706473
C        -1.09590947549238   -2.56148928763444    4.74578167126439
H        -1.88186585753092   -2.11169763242489    2.79795036141179
N         1.29659369821613   -2.22447986540403    5.08589872595464
H         2.31736068490578   -1.48368404564744    3.49800820892039
C         0.10145994041334   -2.62468137465038    5.50529804703153
C        -2.11494226141307   -3.11591830708727    5.57210365678245
N        -0.18307811006984   -3.19697694283502    6.70530348081044
C        -1.51888525006480   -3.49280620322251    6.73846736382911
H        -3.15201569022658   -3.22123066171084    5.32059274628810
H         0.49316698519032   -3.39686934542823    7.42261718923138
H        -1.95032795581886   -3.96104950387294    7.60185428526689
99
 energy: -144.441258120008 gnorm: 0.036540406340 xtb: 6.4.1 (1a32961)
N        -0.92936602798608   -2.08668759444404   -0.28307544086671
C        -2.20920819687403   -1.67794600211187   -0.37718364452502
C        -3.12102452563803   -2.34896035438848   -1.20420890228326
C        -2.71250300891899   -3.44769480044130   -1.92538291776979
C        -1.38729260119510   -3.86553439847312   -1.80762638108699
C        -0.54638024504149   -3.15004643919926   -0.98203845384708
H         0.48808204278244   -3.43914878884135   -0.85856352959997
H        -1.02595486470796   -4.72598051863065   -2.34524459005401
H        -4.14078953942515   -2.01097217024991   -1.28342582092214
C        -2.57238181193405   -0.51796910427902    0.42040276325809
N        -1.58240293671489    0.05642595461908    1.13875181656528
C        -1.87464028490103    1.12092907024219    1.88077219662734
C        -3.13886466484004    1.66473910554378    1.97634433945183
C        -4.17264849357956    1.07818427784235    1.24834740407348
C        -3.87934863283036   -0.01290002175250    0.46165745320177
H        -4.66277455032269   -0.48016501322388   -0.11085152993272
H        -3.31762766442197    2.51800617684015    2.60863862150578
H        -1.04277603133832    1.55081654048787    2.41669380792318
Ir        0.42150000000001   -0.81649999999998    0.91329999999999
H         0.87259999999999   -2.23030000000000    1.54050000000001
B         0.47913379572442    0.46884377424133   -0.72347282761217
O         0.09985259324406    0.00080621983388   -1.97446078845430
C        -0.02220306487932    1.10076950314828   -2.87937562501977
C         0.47948427348302    0.71652961316787   -4.26999267301339
H         1.48742626523734    0.31791447341702   -4.22838614043286
H         0.45870376945887    1.59070757819137   -4.91572821228241
H        -0.17145822391470   -0.04701669208270   -4.68797918823405
C        -1.52118929730213    1.43401924361783   -2.96480138848744
H        -1.70673613330410    2.23794210273542   -3.67043168361422
H        -2.05418673521435    0.54296757441414   -3.28960742033125
H        -1.89299664035725    1.70980913624708   -1.97989452436262
C         0.80208561006173    2.21960218842804   -2.16763964154004
O         0.76151684491270    1.81056325782772   -0.79721778960808
C         2.27812675211706    2.21379343014368   -2.58824891223491
H         2.68853403334506    1.22251957103140   -2.41429939914113
H         2.39410981120120    2.50577959323484   -3.62779940033380
H         2.82287727215909    2.91339798122702   -1.95868824112142
C         0.24074942762129    3.63229388324172   -2.31860133827295
H        -0.75180143655484    3.71418276419889   -1.88817422091987
H         0.89463540792126    4.32771020470614   -1.79846333453733
H         0.20569114590083    3.90062489121008   -3.37127995590671
B         1.56995628139224    0.62740027336999    1.87513855442993
O         2.92905581638733    0.59250476760387    2.09283754739266
C         3.36515626869413    1.89066191181043    2.51478883319785
C         4.53169713134865    1.77644814447823    3.49220473760905
H         4.28655614780862    1.11835256541364    4.31921346361815