99
 energy: -144.446704073596 gnorm: 0.000174752617 xtb: 6.4.1 (1a32961)
N        -0.90494368055119   -2.02654686730325   -0.38188590706089
C        -2.16634783353512   -1.57641285968336   -0.52642045503313
C        -3.03142066481806   -2.15209059968593   -1.46641354354790
C        -2.59192950355839   -3.18823005700858   -2.26017077204130
C        -1.28422490647658   -3.64158705681038   -2.10033720925766
C        -0.49157563126123   -3.02875297499189   -1.15322693974609
H         0.52767087298172   -3.34947425891056   -0.98963585097909
H        -0.89796892137356   -4.45099708793869   -2.69820329037215
H        -4.03966734303365   -1.78902447396734   -1.57941612377334
C        -2.55889575453410   -0.47043409352680    0.33723655237343
N        -1.61106170349474    0.00929650150010    1.17139807728854
C        -1.92672039467847    1.01307846936067    1.98628900952627
C        -3.17536973381657    1.59864018694700    2.02698983705339
C        -4.16095272243277    1.12295726096287    1.16548681334763
C        -3.84462819152647    0.08518497562152    0.31624721216521
H        -4.59461767197481   -0.29556680902398   -0.35699055734955
H        -3.37761546789870    2.40220531606018    2.71644593488399
H        -1.12637863814144    1.35577817314767    2.62403644065390
Ir        0.42150000000016   -0.81649999999982    0.91329999999993
H         0.87259999999985   -2.23030000000003    1.54049999999987
B         0.38596394429229    0.62711564294036   -0.59204423770156
O        -0.28898740945981    0.36295336449926   -1.77255037267296
C        -0.40428722788272    1.56016918938658   -2.54829587536739
C        -0.20808785656893    1.23940879079850   -4.02783258038361
H         0.70364138435609    0.67133662941388   -4.17970537154816
H        -0.16790946577542    2.15846860000212   -4.60677712248991
H        -1.04480221423102    0.63983799164922   -4.37851533216014
C        -1.82580402460207    2.09926530730559   -2.33041296811148
H        -2.00649860944566    2.98662089695218   -2.92981371310455
H        -2.53779406872337    1.32687106904834   -2.61511549677276
H        -1.98098319736122    2.32804045611874   -1.27776297733958
C         0.69299136781890    2.47870428460677   -1.91869021410092
O         0.84132932676816    1.92600327738770   -0.60396910011501
C         2.05210185141712    2.32958194847923   -2.61356442395416
H         2.33949407157702    1.28082109986848   -2.61026331915379
H         2.02599882131220    2.71740050400477   -3.62790634450740
H         2.79661042949796    2.87853113607907   -2.04169992380066
C         0.32317072296843    3.95776644081240   -1.82779291178111
H        -0.53294918662520    4.11019171889514   -1.17796109880276
H         1.16401873133315    4.51043218079150   -1.41568829592504
H         0.10040626352642    4.34662202045946   -2.81824885770168
B         1.55560108453847    0.64532601269206    1.87911529948856
O         2.92282528421119    0.78584831387979    1.89997597670446
C         3.28065588827207    2.05297347030901    2.47012520415983
C         4.51994181478787    1.89409124289944    3.34933494770178
H         4.37955953667781    1.10563659847980    4.08130368327037
H         5.36904154898338    1.62941979788052    2.72434928213146
H         4.73848743081739    2.82932496032971    3.85778795658741
C         3.59890525740403    2.98347527367396    1.29321469257039
H         3.86314204831218    3.98096530832669    1.63146753710845
H         4.43453688655958    2.56514630725874    0.73660503243079
H         2.73911019893015    3.01768232974438    0.62891527061519
C         1.97835479226766    2.46704480365289    3.23668192376648
O         0.97373656036873    1.65549365049389    2.61361978497940
C         1.59286825218453    3.93922576549171    3.09764194265851
H         1.38056189342551    4.18260950451118    2.06198435297879
H         0.69655507243701    4.12919408152756    3.68313133126036
H         2.39364163145537    4.57346376761197    3.46822272506623
C         2.00685474362263    2.09154956729481    4.72396504834890
H         2.21313258714806    1.03095314656332    4.83997059551405
H         2.74788099823168    2.67601351408400    5.26045578709961
H         1.02616795246597    2.28787664883852    5.15140900071982
B         2.27820000000002   -1.33089999999966    0.17409999999880
O         3.11337557094876   -2.29206517620341    0.70436010110882
C         4.40293521576029   -2.23242114140655    0.08200165379449
C         5.32748960426095   -1.50793730484854    1.06639595832505
H         4.88940444323729   -0.54598643694739    1.31663062464051
H         5.38591408975486   -2.09600961659018    1.97887867728180
H         6.32632759583358   -1.38369972254094    0.65971931088601
C         4.92259410252711   -3.65152563334809   -0.14930781239254
H         5.05797721733361   -4.13490412750281    0.81463426847723
H         5.87787761986576   -3.62020115154156   -0.66566545540188
H         4.21822253279962   -4.24253595462821   -0.72512277748028
C         4.12295600205141   -1.40556024389671   -1.22324598091420
O         2.86000512228026   -0.78256062010670   -0.94552030414934
C         5.15486105903136   -0.32040419545712   -1.52721930856670
H         6.14192717902522   -0.75834396174471   -1.64666434550160
H         4.87881796442016    0.18334710253815   -2.45020230841791
H         5.17079647012129    0.41659743708272   -0.73197506581360
C         3.93455895396226   -2.28040185157087   -2.47013569379266
H         3.16815127091782   -3.02959881198937   -2.29228978290292
H         3.60115537031688   -1.64864990661243   -3.28990124603070
H         4.86489025441104   -2.76382728744450   -2.75235264399304
H        -3.24773259677338   -3.63728991827189   -2.99054972073563
H        -5.15048229951152    1.55461223184234    1.16199764005215
C         0.23589999999925   -1.68139999999849    2.96029999999837
C        -1.03725529747900   -2.06376156283561    3.35696989159320
C         1.22038571170196   -1.51108805000188    3.94927818698866
C        -1.30140377353048   -2.15459610736388    4.72450800692385
H        -1.81659187188037   -2.29440792000716    2.64222866493189
N         1.01598331723057   -1.60248041058848    5.25267968420540
H         2.23911603190931   -1.29880539383760    3.65488568577394
C        -0.22763615928220   -1.89897893494291    5.61521665075964
C        -2.42654477380154   -2.46953298736090    5.53707879699857
N        -0.68703363934064   -2.05006592325797    6.88645150222855
C        -2.01110702542474   -2.39252291734220    6.83278347349348
H        -3.41207301633909   -2.71540936622839    5.19291505904953
H        -0.13396177052933   -1.93584846417671    7.71855013107391
H        -2.56854973506333   -2.55815369206480    7.73455410291388
