      -----------------------------------------------------------      
     |                   =====================                   |     
     |                           x T B                           |     
     |                   =====================                   |     
     |                         S. Grimme                         |     
     |          Mulliken Center for Theoretical Chemistry        |     
     |                    University of Bonn                     |     
      -----------------------------------------------------------      

   * xtb version 6.4.0 (f63f532) compiled by 'knkr256@seskscpg008.prim.scp' on 2021-04-09

   xtb is free software: you can redistribute it and/or modify it under
   the terms of the GNU Lesser General Public License as published by
   the Free Software Foundation, either version 3 of the License, or
   (at your option) any later version.
   
   xtb is distributed in the hope that it will be useful,
   but WITHOUT ANY WARRANTY; without even the implied warranty of
   MERCHANTABILITY or FITNESS FOR A PARTICULAR PURPOSE.  See the
   GNU Lesser General Public License for more details.
   
   Cite this work as:
   * C. Bannwarth, E. Caldeweyher, S. Ehlert, A. Hansen, P. Pracht,
     J. Seibert, S. Spicher, S. Grimme, WIREs Comput. Mol. Sci., 2020, 11,
     e01493. DOI: 10.1002/wcms.1493
   
   for GFN2-xTB:
   * C. Bannwarth, S. Ehlert and S. Grimme., J. Chem. Theory Comput., 2019,
     15, 1652-1671. DOI: 10.1021/acs.jctc.8b01176
   for GFN1-xTB:
   * S. Grimme, C. Bannwarth, P. Shushkov, J. Chem. Theory Comput., 2017,
     13, 1989-2009. DOI: 10.1021/acs.jctc.7b00118
   for GFN0-xTB:
   * P. Pracht, E. Caldeweyher, S. Ehlert, S. Grimme, ChemRxiv, 2019, preprint.
     DOI: 10.26434/chemrxiv.8326202.v1
   for GFN-FF:
   * S. Spicher and S. Grimme, Angew. Chem. Int. Ed., 2020, 59, 15665-15673.
     DOI: 10.1002/anie.202004239
   
   for DFT-D4:
   * E. Caldeweyher, C. Bannwarth and S. Grimme, J. Chem. Phys., 2017,
     147, 034112. DOI: 10.1063/1.4993215
   * E. Caldeweyher, S. Ehlert, A. Hansen, H. Neugebauer, S. Spicher,
     C. Bannwarth and S. Grimme, J. Chem. Phys., 2019, 150, 154122.
     DOI: 10.1063/1.5090222
   * E. Caldeweyher, J.-M. Mewes, S. Ehlert and S. Grimme, Phys. Chem. Chem. Phys.
     2020, 22, 8499-8512. DOI: 10.1039/D0CP00502A
   
   for sTDA-xTB:
   * S. Grimme and C. Bannwarth, J. Chem. Phys., 2016, 145, 054103.
     DOI: 10.1063/1.4959605
   
   in the mass-spec context:
   * V. Asgeirsson, C. Bauer and S. Grimme, Chem. Sci., 2017, 8, 4879.
     DOI: 10.1039/c7sc00601b
   * J. Koopman and S. Grimme, ACS Omega 2019, 4, 12, 15120-15133.
     DOI: 10.1021/acsomega.9b02011
   
   for metadynamics refer to:
   * S. Grimme, J. Chem. Theory Comput., 2019, 155, 2847-2862
     DOI: 10.1021/acs.jctc.9b00143
   
   for SPH calculations refer to:
   * S. Spicher and S. Grimme, J. Chem. Theory Comput., 2021, 17, 1701-1714
     DOI: 10.1021/acs.jctc.0c01306
   
   with help from (in alphabetical order)
   P. Atkinson, C. Bannwarth, F. Bohle, G. Brandenburg, E. Caldeweyher
   M. Checinski, S. Dohm, S. Ehlert, S. Ehrlich, I. Gerasimov, J. Koopman
   C. Lavinge, S. Lehtola, F. März, M. Müller, F. Musil, H. Neugebauer
   J. Pisarek, P. Pracht, J. Seibert, P. Shushkov, S. Spicher, M. Stahn
   T. Strunk, J. Stückrath, T. Rose, and J. Unsleber
   
 * started run on 2021/10/08 at 07:25:30.231     

           -------------------------------------------------
          |                Calculation Setup                |
           -------------------------------------------------

          program call               : xtb xtbopt.xyz --sp --alpb thf -P 6
          hostname                   : seskscpg010.prim.scp
          coordinate file            : xtbopt.xyz
          omp threads                :                     6
          number of atoms            :                   111
          number of electrons        :                   290
          charge                     :                     0
          spin                       :                   0.0
          first test random number   :      0.36659615308078

   ID    Z sym.   atoms
    1    7 N      1, 11, 103
    2    6 C      2-6, 10, 12-15, 23, 24, 28, 32, 34, 38, 44, 45, 49, 53, 55,
                  59, 65, 66, 70, 74, 76, 80, 86-91, 93, 96, 99, 104-106, 108
    3    1 H      7-9, 16-18, 20, 25-27, 29-31, 35-37, 39-41, 46-48, 50-52,
                  56-58, 60-62, 67-69, 71-73, 77-79, 81-85, 92, 94, 95, 97,
                  98, 100-102, 107, 109-111
    4   77 Ir     19
    5    5 B      21, 42, 63
    6    8 O      22, 33, 43, 54, 64, 75

molecular fragmentation (1/2 indicates fragments):
111111111111111111111111111111111111111111111111111111111111111111111111
111111111111122222222222222222222222222
# atoms in fragment 1/2:    85    26
 fragment masses (1/2) :      730.32      182.24
CMA distance (Bohr)    :   9.080
constraining FC (au)   :  0.0500

           -------------------------------------------------
          |                 G F N 2 - x T B                 |
           -------------------------------------------------

        Reference                      10.1021/acs.jctc.8b01176
      * Hamiltonian:
        H0-scaling (s, p, d)           1.850000    2.230000    2.230000
        zeta-weighting                 0.500000
      * Dispersion:
        s8                             2.700000
        a1                             0.520000
        a2                             5.000000
        s9                             5.000000
      * Repulsion:
        kExp                           1.500000    1.000000
        rExp                           1.000000
      * Coulomb:
        alpha                          2.000000
        third order                    shell-resolved
        anisotropic                    true
        a3                             3.000000
        a5                             4.000000
        cn-shift                       1.200000
        cn-exp                         4.000000
        max-rad                        5.000000

      * Solvation model:               ALPB
        Solvent                        thf
        Parameter file                 internal GFN2-xTB/ALPB
        Dielectric constant                7.6000E+00
        Reference state                gsolv [1 M gas/solution]
        Free energy shift                  5.3248E-03 Eh       3.3414E+00 kcal/mol
        Temperature                        2.9815E+02 K
        Density                            8.8300E-01 kg/L
        Solvent mass                       7.2106E+01 g/mol
        Interaction kernel             P16
        Born radius scaling (c1)           1.7311E+00
        Born radii integrator          GBOBC
        Born offset                        0.0000E+00 a0       0.0000E+00 AA
        H-bond correction              true
        Ion screening                  false
        Surface tension                    1.0000E-05 Eh       1.5569E+01 dyn/cm
        Grid points                               230 per atom
q/qsh data taken from xtbrestart
CAMM data taken from xtbrestart

          ...................................................
          :                      SETUP                      :
          :.................................................:
          :  # basis functions                 279          :
          :  # atomic orbitals                 278          :
          :  # shells                          166          :
          :  # electrons                       290          :
          :  max. iterations                   250          :
          :  Hamiltonian                  GFN2-xTB          :
          :  restarted?                       true          :
          :  GBSA solvation                   true          :
          :  PC potential                    false          :
          :  electronic temp.          300.0000000     K    :
          :  accuracy                    1.0000000          :
          :  -> integral cutoff          0.2500000E+02      :
          :  -> integral neglect         0.1000000E-07      :
          :  -> SCF convergence          0.1000000E-05 Eh   :
          :  -> wf. convergence          0.1000000E-03 e    :
          :  Broyden damping             0.4000000          :
          ...................................................

 iter      E             dE          RMSdq      gap      omega  full diag
   1   -160.0667279 -0.160067E+03  0.153E-05    0.91       0.0  T
   2   -160.0667279  0.878515E-10  0.315E-05    0.91     301.1  T
   3   -160.0667279 -0.104109E-09  0.815E-06    0.91    1165.0  T

   *** convergence criteria satisfied after 3 iterations ***

         #    Occupation            Energy/Eh            Energy/eV
      -------------------------------------------------------------
         1        2.0000           -0.6743031             -18.3487
       ...           ...                  ...                  ...
       139        2.0000           -0.3635202              -9.8919
       140        2.0000           -0.3468231              -9.4375
       141        2.0000           -0.3281490              -8.9294
       142        2.0000           -0.3209369              -8.7331
       143        2.0000           -0.3148914              -8.5686
       144        2.0000           -0.3091616              -8.4127
       145        2.0000           -0.3044970              -8.2858 (HOMO)
       146                         -0.2709332              -7.3725 (LUMO)
       147                         -0.2448823              -6.6636
       148                         -0.2433113              -6.6208
       149                         -0.2401280              -6.5342
       150                         -0.2318879              -6.3100
       ...                                ...                  ...
       278                          4.1044354             111.6874
      -------------------------------------------------------------
                  HL-Gap            0.0335637 Eh            0.9133 eV
             Fermi-level           -0.2877116 Eh           -7.8290 eV

 SCC (total)                   0 d,  0 h,  0 min,  0.120 sec
 SCC setup                      ...        0 min,  0.002 sec (  2.044%)
 Dispersion                     ...        0 min,  0.002 sec (  1.842%)
 classical contributions        ...        0 min,  0.000 sec (  0.146%)
 integral evaluation            ...        0 min,  0.032 sec ( 26.693%)
 iterations                     ...        0 min,  0.036 sec ( 29.916%)
 molecular gradient             ...        0 min,  0.047 sec ( 38.730%)
 printout                       ...        0 min,  0.001 sec (  0.572%)

         :::::::::::::::::::::::::::::::::::::::::::::::::::::
         ::                     SUMMARY                     ::
         :::::::::::::::::::::::::::::::::::::::::::::::::::::
         :: total energy            -157.919294743319 Eh    ::
         :: total w/o Gsasa/hb      -157.877789614319 Eh    ::
         :: gradient norm              0.029056622490 Eh/a0 ::
         :: HOMO-LUMO gap              0.913315887797 eV    ::
         ::.................................................::
         :: SCC energy              -160.066727882065 Eh    ::
         :: -> isotropic ES            0.243056795423 Eh    ::
         :: -> anisotropic ES          0.014235896632 Eh    ::
         :: -> anisotropic XC          0.063776240096 Eh    ::
         :: -> dispersion             -0.164156186109 Eh    ::
         :: -> Gsolv                  -0.050620518400 Eh    ::
         ::    -> Gelec               -0.009115389400 Eh    ::
         ::    -> Gsasa               -0.044392071561 Eh    ::
         ::    -> Ghb                 -0.002437872884 Eh    ::
         ::    -> Gshift               0.005324815444 Eh    ::
         :: repulsion energy           2.136969174804 Eh    ::
         :: add. restraining           0.000000000000 Eh    ::
         :: total charge               0.000000000315 e     ::
         :::::::::::::::::::::::::::::::::::::::::::::::::::::

           -------------------------------------------------
          |                Property Printout                |
           -------------------------------------------------

    * Orbital Energies and Occupations

         #    Occupation            Energy/Eh            Energy/eV
      -------------------------------------------------------------
         1        2.0000           -0.6743031             -18.3487
       ...           ...                  ...                  ...
       133        2.0000           -0.3863412             -10.5129
       134        2.0000           -0.3851575             -10.4807
       135        2.0000           -0.3831067             -10.4249
       136        2.0000           -0.3818060             -10.3895
       137        2.0000           -0.3776429             -10.2762
       138        2.0000           -0.3753599             -10.2141
       139        2.0000           -0.3635202              -9.8919
       140        2.0000           -0.3468231              -9.4375
       141        2.0000           -0.3281490              -8.9294
       142        2.0000           -0.3209369              -8.7331
       143        2.0000           -0.3148914              -8.5686
       144        2.0000           -0.3091616              -8.4127
       145        2.0000           -0.3044970              -8.2858 (HOMO)
       146                         -0.2709332              -7.3725 (LUMO)
       147                         -0.2448823              -6.6636
       148                         -0.2433113              -6.6208
       149                         -0.2401280              -6.5342
       150                         -0.2318879              -6.3100
       151                         -0.2063331              -5.6146
       152                         -0.1996006              -5.4314
       153                         -0.1991447              -5.4190
       154                         -0.1751100              -4.7650
       155                         -0.1485335              -4.0418
       156                         -0.1237729              -3.3680
       ...                                ...                  ...
       278                          4.1044354             111.6874
      -------------------------------------------------------------
                  HL-Gap            0.0335637 Eh            0.9133 eV
             Fermi-level           -0.2877116 Eh           -7.8290 eV

     #   Z          covCN         q      C6AA      α(0)
     1   7 N        2.548    -0.125    23.750     7.238
     2   6 C        2.955     0.078    26.251     8.404
     3   6 C        2.918    -0.041    29.012     8.833
     4   6 C        2.924    -0.023    28.578     8.767
     5   6 C        2.915    -0.047    29.163     8.856
     6   6 C        2.892     0.046    26.960     8.513
     7   1 H        0.925     0.050     2.322     2.383
     8   1 H        0.926     0.049     2.326     2.385
     9   1 H        0.926     0.038     2.475     2.460
    10   6 C        2.952     0.072    26.398     8.427
    11   7 N        2.558    -0.129    23.819     7.248
    12   6 C        2.888     0.039    27.122     8.538
    13   6 C        2.915    -0.046    29.130     8.850
    14   6 C        2.922    -0.027    28.682     8.783
    15   6 C        2.918    -0.042    29.051     8.839
    16   1 H        0.926     0.040     2.454     2.450
    17   1 H        0.926     0.049     2.338     2.391
    18   1 H        0.926     0.077     2.012     2.218
    19  77 Ir       5.936    -0.147   387.106    36.384
    20   1 H        0.977     0.087     1.899     2.153
    21   5 B        2.625     0.409    15.978     6.757
    22   8 O        1.638    -0.409    21.038     6.191
    23   6 C        3.834     0.130    18.446     6.110
    24   6 C        3.755    -0.120    22.851     6.816
    25   1 H        0.925     0.052     2.300     2.372
    26   1 H        0.925     0.044     2.390     2.418
    27   1 H        0.925     0.051     2.309     2.376
    28   6 C        3.755    -0.110    22.654     6.787
    29   1 H        0.925     0.047     2.354     2.399
    30   1 H        0.925     0.042     2.427     2.436
    31   1 H        0.925     0.029     2.606     2.524
    32   6 C        3.839     0.131    18.432     6.108
    33   8 O        1.637    -0.407    20.990     6.184
    34   6 C        3.755    -0.122    22.890     6.822
    35   1 H        0.925     0.055     2.263     2.352
    36   1 H        0.925     0.045     2.386     2.416
    37   1 H        0.925     0.048     2.341     2.393
    38   6 C        3.755    -0.119    22.838     6.814
    39   1 H        0.925     0.046     2.375     2.410
    40   1 H        0.925     0.053     2.288     2.365
    41   1 H        0.925     0.045     2.380     2.413
    42   5 B        2.623     0.405    16.031     6.771
    43   8 O        1.637    -0.386    20.593     6.125
    44   6 C        3.835     0.129    18.467     6.114
    45   6 C        3.754    -0.125    22.962     6.833
    46   1 H        0.925     0.056     2.252     2.347
    47   1 H        0.925     0.055     2.259     2.351
    48   1 H        0.925     0.049     2.328     2.386
    49   6 C        3.755    -0.120    22.859     6.817
    50   1 H        0.925     0.048     2.343     2.394
    51   1 H        0.925     0.045     2.379     2.412
    52   1 H        0.925     0.051     2.311     2.377
    53   6 C        3.833     0.127    18.490     6.118
    54   8 O        1.637    -0.379    20.460     6.106
    55   6 C        3.755    -0.125    22.945     6.830
    56   1 H        0.925     0.053     2.279     2.361
    57   1 H        0.925     0.056     2.252     2.347
    58   1 H        0.925     0.048     2.341     2.393
    59   6 C        3.755    -0.125    22.955     6.832
    60   1 H        0.925     0.046     2.368     2.406
    61   1 H        0.925     0.052     2.289     2.366
    62   1 H        0.925     0.052     2.293     2.368
    63   5 B        2.626     0.408    15.987     6.759
    64   8 O        1.637    -0.378    20.435     6.102
    65   6 C        3.831     0.125    18.524     6.124
    66   6 C        3.755    -0.129    23.042     6.844
    67   1 H        0.925     0.057     2.232     2.336
    68   1 H        0.925     0.055     2.259     2.351
    69   1 H        0.925     0.050     2.322     2.383
    70   6 C        3.755    -0.130    23.048     6.845
    71   1 H        0.925     0.062     2.180     2.309
    72   1 H        0.925     0.050     2.317     2.380
    73   1 H        0.925     0.052     2.291     2.367
    74   6 C        3.830     0.128    18.479     6.116
    75   8 O        1.637    -0.383    20.526     6.116
    76   6 C        3.755    -0.123    22.919     6.826
    77   1 H        0.925     0.051     2.309     2.376
    78   1 H        0.925     0.053     2.287     2.365
    79   1 H        0.925     0.055     2.262     2.352
    80   6 C        3.755    -0.121    22.867     6.818
    81   1 H        0.925     0.040     2.446     2.446
    82   1 H        0.925     0.046     2.364     2.405
    83   1 H        0.925     0.055     2.264     2.353
    84   1 H        0.926     0.041     2.430     2.438
    85   1 H        0.926     0.045     2.387     2.416
    86   6 C        2.828    -0.031    28.753     8.787
    87   6 C        2.971     0.012    27.753     8.641
    88   6 C        2.925    -0.043    29.066     8.841
    89   6 C        3.812    -0.067    21.775     6.642
    90   6 C        2.928    -0.046    29.148     8.854
    91   6 C        2.918    -0.040    28.996     8.830
    92   1 H        0.926     0.040     2.442     2.444
    93   6 C        3.810    -0.065    21.742     6.637
    94   1 H        0.924     0.044     2.399     2.422
    95   1 H        0.925     0.058     2.218     2.329
    96   6 C        2.916    -0.044    29.098     8.846
    97   1 H        0.925     0.028     2.621     2.532
    98   1 H        0.925     0.025     2.655     2.548
    99   6 C        2.954     0.099    25.809     8.333
   100   1 H        0.924     0.052     2.290     2.366
   101   1 H        0.924     0.055     2.256     2.349
   102   1 H        0.926     0.027     2.628     2.535
   103   7 N        1.841    -0.256    27.522     7.775
   104   6 C        2.918    -0.054    29.334     8.882
   105   6 C        2.905     0.055    26.764     8.483
   106   6 C        2.928    -0.018    28.448     8.747
   107   1 H        0.926     0.039     2.456     2.451
   108   6 C        2.914    -0.050    29.245     8.868
   109   1 H        0.925     0.034     2.527     2.486
   110   1 H        0.926     0.043     2.410     2.428
   111   1 H        0.926     0.041     2.431     2.438

 Mol. C6AA /au·bohr⁶  :     132754.267286
 Mol. C8AA /au·bohr⁸  :    3499326.247674
 Mol. α(0) /au        :        566.954407


Wiberg/Mayer (AO) data.
largest (>0.10) Wiberg bond orders for each atom

 ---------------------------------------------------------------------------
     #   Z sym  total        # sym  WBO       # sym  WBO       # sym  WBO
 ---------------------------------------------------------------------------
     1   7 N    3.395 --     6 C    1.383     2 C    1.304    19 Ir   0.441
     2   6 C    3.979 --     3 C    1.341     1 N    1.304    10 C    1.101
     3   6 C    3.988 --     4 C    1.491     2 C    1.341     9 H    0.962
                             6 C    0.106
     4   6 C    3.984 --     3 C    1.491     5 C    1.371    84 H    0.970
     5   6 C    3.978 --     6 C    1.467     4 C    1.371     8 H    0.969
     6   6 C    3.979 --     5 C    1.467     1 N    1.383     7 H    0.958
                             3 C    0.106
     7   1 H    0.997 --     6 C    0.958
     8   1 H    0.997 --     5 C    0.969
     9   1 H    0.998 --     3 C    0.962
    10   6 C    3.978 --    15 C    1.352    11 N    1.283     2 C    1.101
    11   7 N    3.405 --    12 C    1.369    10 C    1.283    19 Ir   0.435
    12   6 C    3.973 --    13 C    1.468    11 N    1.369    18 H    0.948
                            15 C    0.103
    13   6 C    3.982 --    12 C    1.468    14 C    1.375    17 H    0.969
    14   6 C    3.978 --    15 C    1.479    13 C    1.375    85 H    0.970
    15   6 C    3.989 --    14 C    1.479    10 C    1.352    16 H    0.962
                            12 C    0.103
    16   1 H    0.998 --    15 C    0.962
    17   1 H    0.997 --    13 C    0.969
    18   1 H    0.994 --    12 C    0.948
    19  77 Ir   5.160 --    42 B    0.854    63 B    0.850    21 B    0.683
                            86 C    0.595    20 H    0.554     1 N    0.441
                            11 N    0.435
    20   1 H    0.989 --    19 Ir   0.554    86 C    0.329
    21   5 B    3.278 --    33 O    1.108    22 O    1.095    19 Ir   0.683
    22   8 O    2.191 --    21 B    1.095    23 C    0.942
    23   6 C    3.943 --    24 C    0.996    28 C    0.991    22 O    0.942
                            32 C    0.940
    24   6 C    3.994 --    23 C    0.996    26 H    0.984    27 H    0.983
                            25 H    0.983
    25   1 H    0.997 --    24 C    0.983
    26   1 H    0.997 --    24 C    0.984
    27   1 H    0.997 --    24 C    0.983
    28   6 C    3.997 --    23 C    0.991    29 H    0.984    30 H    0.984
                            31 H    0.983
    29   1 H    0.997 --    28 C    0.984
    30   1 H    0.998 --    28 C    0.984
    31   1 H    0.999 --    28 C    0.983
    32   6 C    3.940 --    38 C    0.997    34 C    0.991    23 C    0.940
                            33 O    0.939
    33   8 O    2.197 --    21 B    1.108    32 C    0.939
    34   6 C    3.994 --    32 C    0.991    36 H    0.983    37 H    0.981
                            35 H    0.979
    35   1 H    0.997 --    34 C    0.979
    36   1 H    0.997 --    34 C    0.983
    37   1 H    0.997 --    34 C    0.981
    38   6 C    3.994 --    32 C    0.997    41 H    0.984    39 H    0.983
                            40 H    0.983
    39   1 H    0.998 --    38 C    0.983
    40   1 H    0.997 --    38 C    0.983
    41   1 H    0.997 --    38 C    0.984
    42   5 B    3.336 --    54 O    1.116    43 O    1.108    19 Ir   0.854
    43   8 O    2.222 --    42 B    1.108    44 C    0.936
    44   6 C    3.937 --    45 C    0.997    49 C    0.991    53 C    0.939
                            43 O    0.936
    45   6 C    3.993 --    44 C    0.997    48 H    0.983    46 H    0.982
                            47 H    0.982
    46   1 H    0.997 --    45 C    0.982
    47   1 H    0.997 --    45 C    0.982
    48   1 H    0.996 --    45 C    0.983
    49   6 C    3.994 --    44 C    0.991    50 H    0.984    51 H    0.982
                            52 H    0.980
    50   1 H    0.997 --    49 C    0.984
    51   1 H    0.998 --    49 C    0.982
    52   1 H    0.997 --    49 C    0.980
    53   6 C    3.937 --    55 C    0.996    59 C    0.992    44 C    0.939
                            54 O    0.933
    54   8 O    2.231 --    42 B    1.116    53 C    0.933
    55   6 C    3.993 --    53 C    0.996    58 H    0.983    57 H    0.983
                            56 H    0.982
    56   1 H    0.997 --    55 C    0.982
    57   1 H    0.997 --    55 C    0.983
    58   1 H    0.996 --    55 C    0.983
    59   6 C    3.994 --    53 C    0.992    61 H    0.983    62 H    0.983
                            60 H    0.981
    60   1 H    0.998 --    59 C    0.981
    61   1 H    0.996 --    59 C    0.983
    62   1 H    0.997 --    59 C    0.983
    63   5 B    3.360 --    75 O    1.114    64 O    1.108    19 Ir   0.850
    64   8 O    2.227 --    63 B    1.108    65 C    0.938
    65   6 C    3.938 --    70 C    0.996    66 C    0.991    74 C    0.939
                            64 O    0.938
    66   6 C    3.992 --    65 C    0.991    69 H    0.983    68 H    0.982
                            67 H    0.979
    67   1 H    0.997 --    66 C    0.979
    68   1 H    0.997 --    66 C    0.982
    69   1 H    0.996 --    66 C    0.983
    70   6 C    3.992 --    65 C    0.996    72 H    0.983    73 H    0.982
                            71 H    0.982
    71   1 H    0.996 --    70 C    0.982
    72   1 H    0.996 --    70 C    0.983
    73   1 H    0.997 --    70 C    0.982
    74   6 C    3.935 --    76 C    0.996    80 C    0.991    65 C    0.939
                            75 O    0.935
    75   8 O    2.230 --    63 B    1.114    74 C    0.935
    76   6 C    3.993 --    74 C    0.996    77 H    0.983    78 H    0.982
                            79 H    0.981
    77   1 H    0.996 --    76 C    0.983
    78   1 H    0.997 --    76 C    0.982
    79   1 H    0.997 --    76 C    0.981
    80   6 C    3.995 --    74 C    0.991    81 H    0.984    83 H    0.983
                            82 H    0.983
    81   1 H    0.998 --    80 C    0.984
    82   1 H    0.998 --    80 C    0.983
    83   1 H    0.996 --    80 C    0.983
    84   1 H    0.997 --     4 C    0.970
    85   1 H    0.997 --    14 C    0.970
    86   6 C    3.946 --    88 C    1.375    87 C    1.368    19 Ir   0.595
                            20 H    0.329    96 C    0.100
    87   6 C    3.985 --    90 C    1.400    86 C    1.368    89 C    1.008
                            91 C    0.101
    88   6 C    3.989 --    91 C    1.453    86 C    1.375    92 H    0.958
                            90 C    0.105
    89   6 C    3.993 --    87 C    1.008    93 C    0.991    94 H    0.972
                            95 H    0.949
    90   6 C    3.985 --    96 C    1.448    87 C    1.400    97 H    0.967
                            88 C    0.105
    91   6 C    3.987 --    88 C    1.453    96 C    1.418    98 H    0.970
                            87 C    0.101
    92   1 H    0.997 --    88 C    0.958
    93   6 C    3.996 --    99 C    1.012    89 C    0.991   100 H    0.955
                           101 H    0.955
    94   1 H    0.998 --    89 C    0.972
    95   1 H    0.996 --    89 C    0.949
    96   6 C    3.987 --    90 C    1.448    91 C    1.418   102 H    0.970
                            86 C    0.100
    97   1 H    0.997 --    90 C    0.967
    98   1 H    0.998 --    91 C    0.970
    99   6 C    3.975 --   103 N    1.415   104 C    1.378    93 C    1.012
                           108 C    0.110
   100   1 H    0.997 --    93 C    0.955
   101   1 H    0.997 --    93 C    0.955
   102   1 H    0.997 --    96 C    0.970
   103   7 N    3.055 --   105 C    1.428    99 C    1.415
   104   6 C    3.990 --   106 C    1.466    99 C    1.378   107 H    0.969
                           105 C    0.116
   105   6 C    3.982 --   108 C    1.439   103 N    1.428   109 H    0.964
                           104 C    0.116
   106   6 C    3.990 --   104 C    1.466   108 C    1.422   110 H    0.969
   107   1 H    0.998 --   104 C    0.969
   108   6 C    3.991 --   105 C    1.439   106 C    1.422   111 H    0.970
                            99 C    0.110
   109   1 H    0.999 --   105 C    0.964
   110   1 H    0.998 --   106 C    0.969
   111   1 H    0.998 --   108 C    0.970
 ---------------------------------------------------------------------------

Topologies differ in total number of bonds
Writing topology from bond orders to xtbtopo.mol

molecular dipole:
                 x           y           z       tot (Debye)
 q only:        0.675       0.072      -0.870
   full:       -0.485       0.159      -1.781       4.709
molecular quadrupole (traceless):
                xx          xy          yy          xz          yz          zz
 q only:        7.930       1.078       4.006       6.501      11.049     -11.935
  q+dip:       10.745       5.694       5.715      11.671      16.811     -16.460
   full:        8.864       7.801       6.942       7.939      13.577     -15.807


           -------------------------------------------------
          | TOTAL ENERGY             -157.919294743319 Eh   |
          | GRADIENT NORM               0.029056622490 Eh/α |
          | HOMO-LUMO GAP               0.913315887797 eV   |
           -------------------------------------------------

------------------------------------------------------------------------
 * finished run on 2021/10/08 at 07:25:30.398     
------------------------------------------------------------------------
 total:
 * wall-time:     0 d,  0 h,  0 min,  0.167 sec
 *  cpu-time:     0 d,  0 h,  0 min,  0.976 sec
 * ratio c/w:     5.842 speedup
 SCF:
 * wall-time:     0 d,  0 h,  0 min,  0.122 sec
 *  cpu-time:     0 d,  0 h,  0 min,  0.728 sec
 * ratio c/w:     5.976 speedup

