111
 energy: -157.862884538744 gnorm: 0.090498372354 xtb: 6.4.0 (f63f532)
N        -0.96509999999989   -2.11530000000000   -0.24090000000000
C        -2.24700000000005   -1.69840000000000   -0.36220000000000
C        -3.14040000000000   -2.36819999999998   -1.21200000000001
C        -2.70220000000000   -3.47560000000000   -1.93050000000000
C        -1.37780000000000   -3.89880000000000   -1.78760000000000
C        -0.54290000000000   -3.18670000000000   -0.93510000000000
H         0.49810000000000   -3.45630000000000   -0.78940000000000
H        -0.99570000000000   -4.76030000000000   -2.32770000000000
H        -4.16500000000000   -2.02890000000000   -1.31830000000000
C        -2.62130000000000   -0.50950000000000    0.44100000000000
N        -1.62600000000000    0.07330000000000    1.16020000000000
C        -1.89680000000000    1.15240000000000    1.91690000000000
C        -3.17230000000000    1.70330000000000    1.99650000000000
C        -4.20510000000000    1.11740000000000    1.26270000000000
C        -3.92610000000000    0.00250000000000    0.47820000000000
H        -4.71960000000000   -0.46420000000000   -0.09520000000000
H        -3.34630000000000    2.57510000000000    2.62070000000000
H        -1.04450000000000    1.57420000000000    2.43690000000000
Ir        0.42150000000000   -0.81650000000000    0.91330000000000
H         0.87260000000000   -2.23030000000000    1.54050000000000
B         0.50670000000000    0.41560000000000   -0.81540000000000
O         0.19500000000000   -0.04700000000000   -2.09150000000000
C         0.00650000000001    1.10040000000000   -2.95430000000000
C         0.49020000000000    0.74740000000000   -4.35780000000000
H         1.51610000000000    0.37380000000000   -4.33700000000000
H         0.44730000000000    1.62240000000000   -5.01670000000000
H        -0.14740000000000   -0.03390000000000   -4.78430000000000
C        -1.50120000000000    1.39560000000000   -2.96670000000000
H        -1.75370000000000    2.21460000000000   -3.64850000000000
H        -2.03200000000000    0.49450000000000   -3.28930000000000
H        -1.85170000000000    1.65210000000000   -1.96220000000000
C         0.84230000000000    2.20670000000000   -2.22040000000000
O         0.75200000000000    1.78260000000000   -0.83690000000000
C         2.32929999999999    2.18620000000000   -2.59900000000000
H         2.74130000000000    1.18500000000000   -2.45750000000000
H         2.48870000000000    2.51300000000000   -3.63180000000000
H         2.87200000000000    2.86270000000000   -1.93200000000000
C         0.28440000000000    3.62290000000000   -2.33660000000000
H        -0.72649999999999    3.69040000000000   -1.92910000000000
H         0.92130000000001    4.31480000000000   -1.77610000000000
H         0.26430000000000    3.94810000000000   -3.38320000000000
B         1.56300000000000    0.60960000000000    1.84840000000000
O         2.92780000000000    0.55230000000000    2.15020000000000
C         3.36330000000001    1.88660000000000    2.50260000000000
C         4.53140000000000    1.78589999999999    3.47740000000001
H         4.27910000000000    1.16090000000000    4.33690000000000
H         5.39390000000000    1.33790000000000    2.97340000000001
H         4.82390000000000    2.77870000000000    3.83819999999999
C         3.79700000000000    2.56850000000000    1.19670000000000
H         4.20020000000000    3.57090000000000    1.37680000000000
H         4.56740000000000    1.95560000000000    0.72110000000000
H         2.95240000000000    2.63260000000000    0.50540000000000
C         2.05040000000000    2.50090000000001    3.09320000000000
O         1.03750000000000    1.81620000000000    2.31910000000000
C         1.89100000000000    4.00450000000000    2.88649999999999
H         1.87290000000000    4.25440000000000    1.82410000000001
H         0.94940000000000    4.34260000000000    3.33170000000000
H         2.71080000000000    4.55150000000000    3.36630000000001
C         1.82470000000001    2.13200000000001    4.56520000000000
H         1.92610000000000    1.05330000000000    4.71320000000000
H         2.52610000000000    2.65280000000000    5.22540000000000
H         0.80630000000001    2.41580000000000    4.84900000000000
B         2.27820000000000   -1.33090000000000    0.17410000000000
O         2.89460000000000   -2.57740000000000    0.38450000000000
C         4.26930000000000   -2.48200000000000   -0.07210000000000
C         5.10900000000000   -2.05380000000000    1.14010000000000
H         4.76350000000000   -1.08740000000001    1.51750000000000
H         4.98050000000000   -2.79470000000001    1.93590000000000
H         6.17420000000000   -1.99290000000000    0.89300000000000
C         4.71950000000001   -3.84660000000000   -0.58470000000000
H         4.75280000000000   -4.56130000000000    0.24420000000001
H         5.72330000000000   -3.78370000000001   -1.02010000000000
H         4.03500000000000   -4.23600000000000   -1.34170000000000
C         4.16440000000000   -1.36220000000000   -1.16300000000000
O         3.08520000000000   -0.55030000000000   -0.65400000000000
C         5.40720000000000   -0.48870000000000   -1.31549999999999
H         6.27320000000000   -1.09010000000000   -1.61530000000000
H         5.23300000000000    0.26930000000000   -2.08590000000000
H         5.64270000000000    0.02650000000000   -0.38240000000001
C         3.71799999999999   -1.89830000000001   -2.53110000000000
H         2.82530000000000   -2.52160000000000   -2.42740000000000
H         3.46089999999999   -1.05250000000000   -3.17550000000000
H         4.50570000000000   -2.48290000000000   -3.01790000000000
H        -3.38500000000000   -4.00130000000000   -2.59310000000000
H        -5.21400000000000    1.52080000000001    1.29959999999999
C         0.23590000000000   -1.68140000000000    2.96030000000001
C        -0.98006206086186   -2.38930573180707    3.27477262220130
C         1.23321341334311   -1.75396736848270    3.93347003194359
C        -2.35520237812283   -2.44686653633895    2.59672191187586
C        -1.08278851875864   -3.07920481639129    4.48505855296943
C         1.08738192142869   -2.41095853064434    5.14890435957042
H         2.18529440973199   -1.29191213758034    3.70861254155938
C        -2.87374465882786   -3.67857715992880    1.82391894296193
H        -3.09665981785235   -2.27105825272823    3.38544887780337
H        -2.47025748662008   -1.60448899365368    1.93565839787941
C        -0.07010081558577   -3.11905186394132    5.42415434241402
H        -2.00332834890364   -3.61880948305355    4.68419661611658
H         1.89711888501781   -2.41765863346351    5.86676394850299
C        -4.18882738492697   -3.47001324885079    1.09076583923369
H        -2.14289327284071   -4.00919292234817    1.07912768035454
H        -3.02298055308591   -4.52127207275754    2.50809267071526
H        -0.19946071264812   -3.69301743094279    6.33307411373780
N        -4.97308721882475   -2.43940863972199    1.41619538782836
C        -4.57303598759642   -4.33177949634587    0.05410629742114
C        -6.04871755355489   -2.17226857222422    0.67140129416154
C        -5.66313605033897   -4.02136491306927   -0.74696308792732
H        -3.97666763516682   -5.20279551232869   -0.18023563327828
C        -6.40312099611506   -2.88092768084088   -0.46296616554944
H        -6.62336520569211   -1.30672948951994    0.98291066655088
H        -5.90681742352157   -4.62269000464169   -1.61465272513448
H        -7.20926661415301   -2.55014965599383   -1.10502074609544
111
 energy: -157.878862403749 gnorm: 0.062548149091 xtb: 6.4.0 (f63f532)
N        -0.94613458710036   -2.07124755836024   -0.28482038735955
C        -2.21274956208784   -1.63303903779853   -0.43215757795049
C        -3.10259025064087   -2.30789615207991   -1.27228931818494
C        -2.68270265570206   -3.43438888838012   -1.95831378375950
C        -1.37285964240708   -3.87322647095858   -1.79432973435465
C        -0.54492139728597   -3.15820147368001   -0.95012497291357
H         0.48360149679136   -3.45031703467470   -0.78472269324650
H        -1.00243149604894   -4.74576231879874   -2.31503932413006
H        -4.12542776855778   -1.97891624977585   -1.36766038847123
C        -2.58731218941670   -0.44648769383108    0.36036916880136
N        -1.59795409106290    0.13135282701682    1.08530964381160
C        -1.88960375302191    1.16758506850612    1.87502593970841
C        -3.16396107689085    1.69786444706555    1.98395234162969
C        -4.18881391007072    1.12380129467911    1.24130624679982
C        -3.89411970927471    0.05067398442999    0.41811135217331
H        -4.68337337710893   -0.41306727547845   -0.14827578141584
H        -3.34489781712050    2.54942479048071    2.62526103453034
H        -1.05191837059039    1.57080616631102    2.42453784621558
Ir        0.42150000000000   -0.81650000000000    0.91330000000000
H         0.87260000000000   -2.23030000000001    1.54050000000000
B         0.49808769829598    0.42125994111964   -0.79642280945634
O         0.18236880601061   -0.03428342670644   -2.07040897333865
C         0.01433903810862    1.09991629310686   -2.94694676271394
C         0.49378970780172    0.75141631791143   -4.35228849834030
H         1.51311440470708    0.37513860670273   -4.33030396987512
H         0.44934018491415    1.62660244502377   -5.00126855694259
H        -0.14415898612756   -0.02516531555049   -4.77336836039124
C        -1.49098575452977    1.40105286506779   -2.97035786589131
H        -1.73280141865857    2.21492073177976   -3.65244502113128
H        -2.02143404575186    0.50399366672615   -3.29056568663525
H        -1.83825327388607    1.65407799674072   -1.96825241627470
C         0.83727228175179    2.20809686461936   -2.21348616377037
O         0.75898702853965    1.77818275063815   -0.83757299376750
C         2.32132408889652    2.19152953598899   -2.59780660780791
H         2.72606981944327    1.19213793751708   -2.44946323386880
H         2.47633090389819    2.51484262522368   -3.62655101810721
H         2.86296671427245    2.86450022407261   -1.93380520576181
C         0.28535147006735    3.62475983344372   -2.33714086317802
H        -0.71874723260047    3.69226851383252   -1.92612748117856
H         0.92350123313676    4.30795932770349   -1.77785443288102
H         0.26834945039225    3.94079921062816   -3.38041328940788
B         1.56358597170400    0.61443373635761    1.85978955378672
O         2.92430921146739    0.56253777641788    2.14084618895713
C         3.36266868081810    1.88450707352624    2.51180272319363
C         4.53188054695018    1.78561131653507    3.48371205390629
H         4.27834101468291    1.15813525020866    4.33428033506236
H         5.38714254034913    1.33992179478787    2.97724032365667
H         4.81595897780879    2.77537434901896    3.84035570668398
C         3.79935330310877    2.57080470738965    1.21217856306615
H         4.20119722988596    3.56660550531738    1.39508172921706
H         4.56360288332760    1.95893857751404    0.73554445217965
H         2.95247123839824    2.62459259879029    0.52909692938285
C         2.05201362863297    2.50259316026365    3.09243224340125
O         1.04098812219304    1.80887605369532    2.33516876848523
C         1.89356924183432    4.00516352481797    2.89222932669353
H         1.87045253008756    4.24958511190919    1.83392774566429
H         0.95510703582726    4.33448546675301    3.33684539752897
H         2.71280001948289    4.54194732739542    3.37017651080019
C         1.82771062065441    2.13671227221291    4.56452265179751
H         1.92756613137110    1.06100826705354    4.70357687697321
H         2.52762515833277    2.65658194520705    5.21650711176867
H         0.81272175877970    2.41514245857107    4.84734231628135
B         2.27819999999995   -1.33090000000001    0.17409999999991
O         2.89994769276764   -2.56290968105911    0.38858055944633
C         4.26599494290754   -2.48396072110360   -0.07565698289887
C         5.10874425752452   -2.05985004378245    1.13260470389475
H         4.75344935778944   -1.09978042972306    1.50493375305707
H         4.97576349545688   -2.79528888765929    1.92535551868757
H         6.16728451770589   -1.99985836139036    0.88335541046271
C         4.72051403508195   -3.84647538672116   -0.58626002268663
H         4.74872380276527   -4.55223103374798    0.24283411532261
H         5.71889040935851   -3.77632965348978   -1.01752089299947
H         4.03556882521894   -4.23291232737536   -1.33644575605150
C         4.16746603832774   -1.36056899725475   -1.15636828858522
O         3.07659673359269   -0.56285304691912   -0.65919579592955
C         5.41098610207602   -0.49180941453181   -1.31269798566079
H         6.26786806777011   -1.09644738067327   -1.60900708650207
H         5.23317322468912    0.26085069318461   -2.07985120988165
H         5.63861932516624    0.02141193823063   -0.38273676619192
C         3.72854157096143   -1.89819649854112   -2.52538850525587
H         2.83595841788033   -2.51344081883067   -2.41801865003797
H         3.47129498644179   -1.05595839832181   -3.16669144914995
H         4.51696110823329   -2.47598413904041   -3.00517308373448
H        -3.36870375100689   -3.97291293549011   -2.59915119513829
H        -5.19793443902223    1.51132341461519    1.29557768587986
C         0.23590000000002   -1.68139999999993    2.96030000000015
C        -0.98093369205052   -2.39364057029898    3.29083693564125
C         1.24033280169155   -1.74697119344828    3.92815488151151
C        -2.35867665818226   -2.43852463417643    2.60464290464484
C        -1.06755923154502   -3.07782979064638    4.50235474215159
C         1.10374724261286   -2.40024824653828    5.14544007451148
H         2.18876171471500   -1.28334109763988    3.69860544472964
C        -2.86272049764125   -3.68567763793721    1.83932793097442
H        -3.09704313068618   -2.26427631120352    3.39426094907313
H        -2.46515704425183   -1.60325320096178    1.94098364339886
C        -0.04809598316143   -3.11034006434963    5.42931191018344
H        -1.98243318696331   -3.62069612481165    4.70953985220367
H         1.91691011304347   -2.40206803423536    5.85778386243087
C        -4.18484700969854   -3.48064172060886    1.11209413308066
H        -2.13146679783474   -4.01270727532477    1.09519160526503
H        -3.00448783538001   -4.52464057772922    2.52858698778819
H        -0.16750010050840   -3.68098238359231    6.33988281853382
N        -4.96577208241573   -2.45470125005603    1.43691279424518
C        -4.56930625815665   -4.34885420861345    0.07844590716430
C        -6.04276847818594   -2.19223075792237    0.70059701781142
C        -5.66027851689996   -4.04171093317748   -0.71832928715626
H        -3.96936129250538   -5.21553980111490   -0.15601964418980
C        -6.40095663183983   -2.90236359097274   -0.43183343195796
H        -6.61596999580896   -1.32641748369564    1.01236013245736
H        -5.90547597133719   -4.64413958973322   -1.58299236317278
H        -7.20996163337245   -2.57392287606075   -1.06995086162283
111
 energy: -157.887939697039 gnorm: 0.052639938885 xtb: 6.4.0 (f63f532)
N        -0.92670603938810   -2.03458450186209   -0.31624702716556
C        -2.18218524250610   -1.57756290015495   -0.48961961071978
C        -3.07248974701582   -2.25159692151345   -1.32726894447863
C        -2.66675268192984   -3.39073415395348   -1.99194240288047
C        -1.36349560861352   -3.84071923901475   -1.81327768931794
C        -0.54043811372341   -3.12698748495681   -0.96913288368306
H         0.47620555066552   -3.44507327716977   -0.78151149338692
H        -1.00546210028729   -4.72914834089587   -2.31014041061995
H        -4.08696273301861   -1.90952705910209   -1.43700067533530
C        -2.55324369589530   -0.39239631330935    0.28730304655491
N        -1.57235088938291    0.16487872627177    1.03735747157863
C        -1.87637822871283    1.18198585290504    1.83593037207622
C        -3.14892787153572    1.70406656818015    1.95708629848744
C        -4.16852130007442    1.14169584757914    1.19946883945321
C        -3.86139570545747    0.09789406804240    0.34953018796585
H        -4.64585639524639   -0.36171708823326   -0.22218735279680
H        -3.34141418217753    2.52264130389565    2.63459253092430
H        -1.04991388024077    1.57597906586273    2.40587866197588
Ir        0.42149999999999   -0.81650000000000    0.91330000000000
H         0.87260000000000   -2.23030000000001    1.54050000000001
B         0.51471068598685    0.42815022133871   -0.78144230429382
O         0.17361023755603   -0.02309699253938   -2.04880016737083
C         0.01883739815494    1.10046962073163   -2.93196436929380
C         0.50098810398356    0.75224044888664   -4.33712600614090
H         1.51669003970480    0.37343689462120   -4.31753881877732
H         0.45506770434912    1.63135416819444   -4.97459151328971
H        -0.14013777759045   -0.01803774977882   -4.75756011791135
C        -1.48516269188404    1.40967288789300   -2.97168062349138
H        -1.71123287892767    2.22096399818486   -3.65651394535249
H        -2.01448760199172    0.51516091445198   -3.29362493165013
H        -1.83292980760067    1.66250017201833   -1.97215989489206
C         0.83729617729680    2.20938125299080   -2.20154944443712
O         0.77104576265285    1.77915442495487   -0.83244068241151
C         2.31933050617509    2.19817806205973   -2.59405990439169
H         2.71906532670823    1.19942739990638   -2.44036300298373
H         2.46469135152202    2.51725860764778   -3.62182403979394
H         2.85938017784782    2.87216041179775   -1.93393662741329
C         0.28437011029826    3.62550475937369   -2.33101853455424
H        -0.71608587879255    3.69705739838510   -1.91833209796670
H         0.92651181942433    4.30446301677650   -1.77691003099934
H         0.27055757542603    3.92894708217382   -3.37416074404660
B         1.56613182596419    0.61739216603718    1.87308700744043
O         2.92240086226634    0.57000243157140    2.13528000445573
C         3.36139091614320    1.88165845973779    2.52022895021143
C         4.52872427311537    1.78155690142104    3.49499192622375
H         4.27598473060088    1.15059892084310    4.33976219267314
H         5.38045232680689    1.34068004126797    2.98488291459008
H         4.80418931901479    2.77042346595786    3.84888770093645
C         3.80356955588526    2.57652556499835    1.22750560386576
H         4.20297097958254    3.56783121385311    1.41685599575745
H         4.56564994224495    1.96541841839064    0.75167723393477
H         2.95488755514399    2.62372193049631    0.54952831174307
C         2.05201096617314    2.49971848099328    3.09693200264193
O         1.04436651048881    1.79974962133553    2.35154592389288
C         1.89579633660979    4.00255003347580    2.89730990193342
H         1.86821979578494    4.24620545136890    1.84152117328712
H         0.96067488415799    4.32646379532783    3.34517339277888
H         2.71661744970247    4.52975523117743    3.37419076024165
C         1.83241473893953    2.14020242440287    4.57200791065353
H         1.93186232704986    1.06580710090428    4.70345301828454
H         2.53297143073371    2.66156120758199    5.21573849674887
H         0.81883777357657    2.41605377860995    4.85222419955295
B         2.27819999999990   -1.33090000000003    0.17409999999982
O         2.90143424159123   -2.55082840692729    0.39538814129232
C         4.25888220046808   -2.48338671865401   -0.07469161892801
C         5.10923683973801   -2.06487335672338    1.12961806003307
H         4.74742845450237   -1.10840217696472    1.49852011784089
H         4.97326539580735   -2.79906321977577    1.91895760620193
H         6.16253878883595   -2.00635065959888    0.87485117751101
C         4.71428742702562   -3.84536051213435   -0.58766309646438
H         4.74192701893642   -4.54469450760669    0.24257414068891
H         5.70952304267512   -3.76626661015143   -1.01493141971746
H         4.03081761663764   -4.23211636955001   -1.33492524109864
C         4.16544555622597   -1.35982688845226   -1.15127958142375
O         3.06693637747053   -0.57191910622255   -0.66423784444728
C         5.41123266578158   -0.49389478629920   -1.30338097489196
H         6.25960123955139   -1.10551671910387   -1.59562352768136
H         5.23452959972305    0.25351847081637   -2.07149109083503
H         5.63538808858071    0.01912149710828   -0.37562252346824
C         3.73947052063678   -1.89926184099946   -2.52430556334164
H         2.84715653149577   -2.51012766831889   -2.41487803481068
H         3.48551527425093   -1.05769505177046   -3.16389783681244
H         4.53245470836741   -2.47264188429965   -2.99310818695040
H        -3.35340956725194   -3.93093905596651   -2.62492923379080
H        -5.18249195560838    1.50551462696067    1.27984909782726
C         0.23590000000004   -1.68139999999985    2.96030000000031
C        -0.97903382292553   -2.39041821681381    3.31057668989025
C         1.25124399210900   -1.73739592293181    3.91788978142427
C        -2.35090748212256   -2.41765877657683    2.60911645127799
C        -1.04913486658512   -3.07132659839783    4.52204546118886
C         1.12891245796554   -2.38458317329135    5.13922425780260
H         2.19506378992597   -1.27116322832831    3.67856199400957
C        -2.83620192053525   -3.68150050003787    1.85712845661892
H        -3.09267080827689   -2.24208196286821    3.39362616054696
H        -2.44207338049642   -1.59072856257474    1.93326017112400
C        -0.01733196110636   -3.09678221804681    5.43563472305228
H        -1.95962797243210   -3.61568284694067    4.74194603918580
H         1.94829576227838   -2.37789187756160    5.84388278909870
C        -4.15634034904701   -3.47805470610178    1.12630613274640
H        -2.10143955845051   -4.00484652636040    1.11677926215156
H        -2.97208322293142   -4.51366391997193    2.55535026897701
H        -0.12230873217041   -3.66249347019225    6.35049182208643
N        -4.93300294458403   -2.45428488212219    1.45145633341974
C        -4.53757773418609   -4.35227564699344    0.09588579968075
C        -6.01775172686684   -2.20130385224219    0.73003600617553
C        -5.64080224778863   -4.05684005285271   -0.68547240478967
H        -3.94465148574055   -5.22639177843258   -0.12521562823782
C        -6.38934080713958   -2.92426836488148   -0.39053327270807
H        -6.59932535931656   -1.34519852676287    1.05207344162377
H        -5.90144823358602   -4.67346235518870   -1.53510604195886
H        -7.21538916586956   -2.61121447143754   -1.01357902268307
111
 energy: -157.894403915926 gnorm: 0.048470213007 xtb: 6.4.0 (f63f532)
N        -0.90771830600212   -2.00387946516508   -0.34560593129231
C        -2.15341357885001   -1.52542392484347   -0.54803846327877
C        -3.04296572567826   -2.19064389875615   -1.39534274955515
C        -2.64971775492591   -3.34478688759418   -2.03872178380576
C        -1.35413558828793   -3.81486287921749   -1.83516912790933
C        -0.53294039487245   -3.10679295985532   -0.98506278463397
H         0.47620499221640   -3.44118833990351   -0.78509980355979
H        -1.00471469705081   -4.71449684402598   -2.31567039549450
H        -4.05062442199856   -1.83177870916620   -1.52134183748775
C        -2.52242456933216   -0.34555258272894    0.22442871066596
N        -1.54800542262030    0.19302761125744    0.99913084538784
C        -1.86055188073259    1.19954963357577    1.80606696901556
C        -3.13555458541988    1.71231171650053    1.93468042052722
C        -4.14990158612363    1.16291948601087    1.15658293161359
C        -3.83098388295474    0.14553645279690    0.28040464982608
H        -4.60789784746355   -0.30162675668679   -0.31380547420167
H        -3.33694169038935    2.50614745693010    2.63749671223773
H        -1.04175069399756    1.58949942275757    2.38952889299504
Ir        0.42149999999999   -0.81650000000000    0.91330000000000
H         0.87260000000000   -2.23030000000001    1.54050000000001
B         0.51258609427680    0.44245087348192   -0.76522571658825
O         0.16555993701382   -0.01257106909821   -2.02929405044553
C         0.02175822964510    1.10369860758574   -2.91602742982748
C         0.50996789236905    0.75204370236103   -4.31933673000364
H         1.52384940444155    0.36905083397337   -4.29868570137983
H         0.46737202829523    1.63462660287155   -4.95152241986276
H        -0.13469642425701   -0.01373531896403   -4.74210485113051
C        -1.48127570979729    1.42045139453386   -2.97176825769130
H        -1.69202712545034    2.23134947948496   -3.66099296708460
H        -2.01066044812759    0.52767738749737   -3.29779977847006
H        -1.83653447779941    1.67697715962208   -1.97613688893863
C         0.84019165225824    2.21347185435438   -2.18690957678059
O         0.78412469330296    1.78714472170902   -0.82047223636162
C         2.32055551569717    2.20497765367394   -2.58906001257849
H         2.72035787938514    1.20695376828850   -2.43188050015954
H         2.45690999673465    2.51968862207380   -3.61871289899725
H         2.86091950860073    2.88329504165574   -1.93415177735224
C         0.28550625071030    3.62937592782348   -2.32121684284361
H        -0.71389688188617    3.70413057516880   -1.90711645880802
H         0.93076479527586    4.31007861577648   -1.77342104416155
H         0.27066850959515    3.92226876910334   -3.36689641784997
B         1.56849338417722    0.61751622031360    1.88262130655918
O         2.92356167564532    0.57291078385316    2.13087784608061
C         3.36120559528410    1.87820760140995    2.52850063330427
C         4.52608071497387    1.77494174518652    3.50748602448401
H         4.27311432044761    1.13931820246553    4.34839797757135
H         5.37950530203673    1.33959366102954    2.99590960172821
H         4.79505471012362    2.76394296444078    3.86466413768924
C         3.80898804557163    2.58332201174896    1.24232093140094
H         4.20539027983665    3.57326668635930    1.44061623720802
H         4.57348887036092    1.97516156155419    0.76691658543439
H         2.96115488379532    2.63084136501245    0.56375845681895
C         2.05165777980084    2.49526906645159    3.10525763490938
O         1.04490829233241    1.79081274819904    2.36849581861332
C         1.89585149183270    3.99886662735688    2.90386925817972
H         1.86422217442228    4.24302619815608    1.84842519054200
H         0.96341363893957    4.32281419046855    3.35670546095717
H         2.72054543632177    4.52146696297082    3.37806309335052
C         1.83770717595835    2.14212225317186    4.58376373376221
H         1.93793746013349    1.06804297687515    4.71476836581084
H         2.54066307805298    2.66678631426167    5.22099021827370
H         0.82461500742889    2.41830529615800    4.86423882230037
B         2.27819999999985   -1.33090000000005    0.17409999999972
O         2.90076085271168   -2.54467618087951    0.40408579785043
C         4.25214452011468   -2.48325623536202   -0.07178862948425
C         5.10988965866062   -2.06884978838121    1.12971601458728
H         4.74784543609216   -1.11308856576839    1.49956705460279
H         4.97403887732524   -2.80475333600994    1.91701626075016
H         6.16099599068178   -2.01183192449531    0.86914298643330
C         4.70552132726087   -3.84608141737624   -0.58751826019217
H         4.73462263525728   -4.54398380410711    0.24344559137482
H         5.70001391209933   -3.76175786134130   -1.01429195343682
H         4.02224586386025   -4.23311984637369   -1.33448514793041
C         4.16285996773882   -1.35955407468945   -1.14804150141814
O         3.05918414569139   -0.57610714196355   -0.67069606599583
C         5.41061161093225   -0.49417949590157   -1.29263878665904
H         6.25617192414498   -1.11185852464674   -1.57899521542673
H         5.23926430040122    0.25079112456036   -2.06393216038848
H         5.63149194557936    0.01962168578918   -0.36480449603858
C         3.75019839306575   -1.90052470786339   -2.52546859063627
H         2.85778297464876   -2.51134649855265   -2.42053937893632
H         3.50216437236046   -1.05882226041660   -3.16688523383004
H         4.54949452199673   -2.47257610809912   -2.98351642410205
H        -3.33838719560377   -3.88430630721497   -2.66868097116237
H        -5.16681764384893    1.51247571761139    1.24768963182644
C         0.23590000000007   -1.68139999999977    2.96030000000047
C        -0.97212475439361   -2.38233656800855    3.32995776367758
C         1.26429899515711   -1.72605978038642    3.90468878238654
C        -2.33270507826977   -2.39730736164054    2.61816858176670
C        -1.03013638362595   -3.05767169767192    4.54334661720592
C         1.15777016176044   -2.36516753911559    5.13164345177367
H         2.20460758249126   -1.26031398516089    3.65064999208145
C        -2.80045419212521   -3.67098852267455    1.87682162605052
H        -3.08450339388280   -2.20870610984171    3.38984625091594
H        -2.40255446883759   -1.57922830615734    1.92563584132912
C         0.01579297621011   -3.07742535596398    5.44363352449658
H        -1.93781184666806   -3.60108974955141    4.77831346938500
H         1.98582312620625   -2.35076195072655    5.82633457339073
C        -4.11728652455476   -3.47497123205658    1.14361673978458
H        -2.05917030999652   -3.99270750818628    1.14282378227751
H        -2.93161481443537   -4.49493096293644    2.58496959561403
H        -0.07271081690141   -3.63918898330699    6.36298044025324
N        -4.88970786052028   -2.44967446061108    1.46889035981346
C        -4.49929130707391   -4.35722608972572    0.12131000811988
C        -5.98635913574620   -2.20905338939551    0.76359992399933
C        -5.61731438599794   -4.07503600407847   -0.64331084280435
H        -3.90423367904727   -5.23061950337123   -0.09582456936823
C        -6.37203305067648   -2.94812042783637   -0.34214030009259
H        -6.57117583901323   -1.35720361828795    1.09032814879912
H        -5.89091307419184   -4.70375631514563   -1.48033451865705