      -----------------------------------------------------------      
     |                   =====================                   |     
     |                           x T B                           |     
     |                   =====================                   |     
     |                         S. Grimme                         |     
     |          Mulliken Center for Theoretical Chemistry        |     
     |                    University of Bonn                     |     
      -----------------------------------------------------------      

   * xtb version 6.4.0 (f63f532) compiled by 'knkr256@seskscpg008.prim.scp' on 2021-04-09

   xtb is free software: you can redistribute it and/or modify it under
   the terms of the GNU Lesser General Public License as published by
   the Free Software Foundation, either version 3 of the License, or
   (at your option) any later version.
   
   xtb is distributed in the hope that it will be useful,
   but WITHOUT ANY WARRANTY; without even the implied warranty of
   MERCHANTABILITY or FITNESS FOR A PARTICULAR PURPOSE.  See the
   GNU Lesser General Public License for more details.
   
   Cite this work as:
   * C. Bannwarth, E. Caldeweyher, S. Ehlert, A. Hansen, P. Pracht,
     J. Seibert, S. Spicher, S. Grimme, WIREs Comput. Mol. Sci., 2020, 11,
     e01493. DOI: 10.1002/wcms.1493
   
   for GFN2-xTB:
   * C. Bannwarth, S. Ehlert and S. Grimme., J. Chem. Theory Comput., 2019,
     15, 1652-1671. DOI: 10.1021/acs.jctc.8b01176
   for GFN1-xTB:
   * S. Grimme, C. Bannwarth, P. Shushkov, J. Chem. Theory Comput., 2017,
     13, 1989-2009. DOI: 10.1021/acs.jctc.7b00118
   for GFN0-xTB:
   * P. Pracht, E. Caldeweyher, S. Ehlert, S. Grimme, ChemRxiv, 2019, preprint.
     DOI: 10.26434/chemrxiv.8326202.v1
   for GFN-FF:
   * S. Spicher and S. Grimme, Angew. Chem. Int. Ed., 2020, 59, 15665-15673.
     DOI: 10.1002/anie.202004239
   
   for DFT-D4:
   * E. Caldeweyher, C. Bannwarth and S. Grimme, J. Chem. Phys., 2017,
     147, 034112. DOI: 10.1063/1.4993215
   * E. Caldeweyher, S. Ehlert, A. Hansen, H. Neugebauer, S. Spicher,
     C. Bannwarth and S. Grimme, J. Chem. Phys., 2019, 150, 154122.
     DOI: 10.1063/1.5090222
   * E. Caldeweyher, J.-M. Mewes, S. Ehlert and S. Grimme, Phys. Chem. Chem. Phys.
     2020, 22, 8499-8512. DOI: 10.1039/D0CP00502A
   
   for sTDA-xTB:
   * S. Grimme and C. Bannwarth, J. Chem. Phys., 2016, 145, 054103.
     DOI: 10.1063/1.4959605
   
   in the mass-spec context:
   * V. Asgeirsson, C. Bauer and S. Grimme, Chem. Sci., 2017, 8, 4879.
     DOI: 10.1039/c7sc00601b
   * J. Koopman and S. Grimme, ACS Omega 2019, 4, 12, 15120-15133.
     DOI: 10.1021/acsomega.9b02011
   
   for metadynamics refer to:
   * S. Grimme, J. Chem. Theory Comput., 2019, 155, 2847-2862
     DOI: 10.1021/acs.jctc.9b00143
   
   for SPH calculations refer to:
   * S. Spicher and S. Grimme, J. Chem. Theory Comput., 2021, 17, 1701-1714
     DOI: 10.1021/acs.jctc.0c01306
   
   with help from (in alphabetical order)
   P. Atkinson, C. Bannwarth, F. Bohle, G. Brandenburg, E. Caldeweyher
   M. Checinski, S. Dohm, S. Ehlert, S. Ehrlich, I. Gerasimov, J. Koopman
   C. Lavinge, S. Lehtola, F. März, M. Müller, F. Musil, H. Neugebauer
   J. Pisarek, P. Pracht, J. Seibert, P. Shushkov, S. Spicher, M. Stahn
   T. Strunk, J. Stückrath, T. Rose, and J. Unsleber
   
 * started run on 2021/10/08 at 07:14:56.854     

           -------------------------------------------------
          |                Calculation Setup                |
           -------------------------------------------------

          program call               : xtb xtbopt.xyz --sp --alpb thf -P 6
          hostname                   : seskscpg010.prim.scp
          coordinate file            : xtbopt.xyz
          omp threads                :                     6
          number of atoms            :                   107
          number of electrons        :                   280
          charge                     :                     0
          spin                       :                   0.0
          first test random number   :      0.16992918469197

   ID    Z sym.   atoms
    1    7 N      1, 11, 97
    2    6 C      2-6, 10, 12-15, 23, 24, 28, 32, 34, 38, 44, 45, 49, 53, 55,
                  59, 65, 66, 70, 74, 76, 80, 86-89, 91, 93, 94, 100-102, 104
    3    1 H      7-9, 16-18, 20, 25-27, 29-31, 35-37, 39-41, 46-48, 50-52,
                  56-58, 60-62, 67-69, 71-73, 77-79, 81-85, 90, 92, 95, 96,
                  98, 99, 103, 105-107
    4   77 Ir     19
    5    5 B      21, 42, 63
    6    8 O      22, 33, 43, 54, 64, 75

molecular fragmentation (1/2 indicates fragments):
111111111111111111111111111111111111111111111111111111111111111111111111
11111111111112222222222222222222222
# atoms in fragment 1/2:    85    22
 fragment masses (1/2) :      730.32      156.20
CMA distance (Bohr)    :  11.164
constraining FC (au)   :  0.0500

           -------------------------------------------------
          |                 G F N 2 - x T B                 |
           -------------------------------------------------

        Reference                      10.1021/acs.jctc.8b01176
      * Hamiltonian:
        H0-scaling (s, p, d)           1.850000    2.230000    2.230000
        zeta-weighting                 0.500000
      * Dispersion:
        s8                             2.700000
        a1                             0.520000
        a2                             5.000000
        s9                             5.000000
      * Repulsion:
        kExp                           1.500000    1.000000
        rExp                           1.000000
      * Coulomb:
        alpha                          2.000000
        third order                    shell-resolved
        anisotropic                    true
        a3                             3.000000
        a5                             4.000000
        cn-shift                       1.200000
        cn-exp                         4.000000
        max-rad                        5.000000

      * Solvation model:               ALPB
        Solvent                        thf
        Parameter file                 internal GFN2-xTB/ALPB
        Dielectric constant                7.6000E+00
        Reference state                gsolv [1 M gas/solution]
        Free energy shift                  5.3248E-03 Eh       3.3414E+00 kcal/mol
        Temperature                        2.9815E+02 K
        Density                            8.8300E-01 kg/L
        Solvent mass                       7.2106E+01 g/mol
        Interaction kernel             P16
        Born radius scaling (c1)           1.7311E+00
        Born radii integrator          GBOBC
        Born offset                        0.0000E+00 a0       0.0000E+00 AA
        H-bond correction              true
        Ion screening                  false
        Surface tension                    1.0000E-05 Eh       1.5569E+01 dyn/cm
        Grid points                               230 per atom
q/qsh data taken from xtbrestart
CAMM data taken from xtbrestart

          ...................................................
          :                      SETUP                      :
          :.................................................:
          :  # basis functions                 269          :
          :  # atomic orbitals                 268          :
          :  # shells                          160          :
          :  # electrons                       280          :
          :  max. iterations                   250          :
          :  Hamiltonian                  GFN2-xTB          :
          :  restarted?                       true          :
          :  GBSA solvation                   true          :
          :  PC potential                    false          :
          :  electronic temp.          300.0000000     K    :
          :  accuracy                    1.0000000          :
          :  -> integral cutoff          0.2500000E+02      :
          :  -> integral neglect         0.1000000E-07      :
          :  -> SCF convergence          0.1000000E-05 Eh   :
          :  -> wf. convergence          0.1000000E-03 e    :
          :  Broyden damping             0.4000000          :
          ...................................................

 iter      E             dE          RMSdq      gap      omega  full diag
   1   -154.6815894 -0.154682E+03  0.282E-05    0.88       0.0  T
   2   -154.6815894 -0.341061E-12  0.228E-05    0.88     424.2  T
   3   -154.6815894 -0.255795E-12  0.198E-05    0.88     489.3  T

   *** convergence criteria satisfied after 3 iterations ***

         #    Occupation            Energy/Eh            Energy/eV
      -------------------------------------------------------------
         1        2.0000           -0.6742079             -18.3461
       ...           ...                  ...                  ...
       134        2.0000           -0.3587505              -9.7621
       135        2.0000           -0.3466744              -9.4335
       136        2.0000           -0.3308698              -9.0034
       137        2.0000           -0.3209927              -8.7347
       138        2.0000           -0.3174606              -8.6385
       139        2.0000           -0.3099386              -8.4339
       140        2.0000           -0.3081334              -8.3847 (HOMO)
       141                         -0.2759356              -7.5086 (LUMO)
       142                         -0.2478525              -6.7444
       143                         -0.2455413              -6.6815
       144                         -0.2132915              -5.8040
       145                         -0.2107559              -5.7350
       ...                                ...                  ...
       268                          3.7305912             101.5146
      -------------------------------------------------------------
                  HL-Gap            0.0321977 Eh            0.8761 eV
             Fermi-level           -0.2919683 Eh           -7.9449 eV

 SCC (total)                   0 d,  0 h,  0 min,  0.114 sec
 SCC setup                      ...        0 min,  0.003 sec (  2.607%)
 Dispersion                     ...        0 min,  0.002 sec (  1.816%)
 classical contributions        ...        0 min,  0.000 sec (  0.150%)
 integral evaluation            ...        0 min,  0.031 sec ( 27.480%)
 iterations                     ...        0 min,  0.034 sec ( 30.101%)
 molecular gradient             ...        0 min,  0.043 sec ( 37.247%)
 printout                       ...        0 min,  0.001 sec (  0.539%)

         :::::::::::::::::::::::::::::::::::::::::::::::::::::
         ::                     SUMMARY                     ::
         :::::::::::::::::::::::::::::::::::::::::::::::::::::
         :: total energy            -152.624199810255 Eh    ::
         :: total w/o Gsasa/hb      -152.581055535463 Eh    ::
         :: gradient norm              0.033587284991 Eh/a0 ::
         :: HOMO-LUMO gap              0.876144667154 eV    ::
         ::.................................................::
         :: SCC energy              -154.681589409330 Eh    ::
         :: -> isotropic ES            0.236381214477 Eh    ::
         :: -> anisotropic ES          0.016732957550 Eh    ::
         :: -> anisotropic XC          0.055956733895 Eh    ::
         :: -> dispersion             -0.148201735191 Eh    ::
         :: -> Gsolv                  -0.052289094686 Eh    ::
         ::    -> Gelec               -0.009144819894 Eh    ::
         ::    -> Gsasa               -0.046028152833 Eh    ::
         ::    -> Ghb                 -0.002440937404 Eh    ::
         ::    -> Gshift               0.005324815444 Eh    ::
         :: repulsion energy           2.048547076893 Eh    ::
         :: add. restraining           0.000000000000 Eh    ::
         :: total charge               0.000000000021 e     ::
         :::::::::::::::::::::::::::::::::::::::::::::::::::::

           -------------------------------------------------
          |                Property Printout                |
           -------------------------------------------------

    * Orbital Energies and Occupations

         #    Occupation            Energy/Eh            Energy/eV
      -------------------------------------------------------------
         1        2.0000           -0.6742079             -18.3461
       ...           ...                  ...                  ...
       128        2.0000           -0.3879350             -10.5562
       129        2.0000           -0.3860967             -10.5062
       130        2.0000           -0.3849369             -10.4747
       131        2.0000           -0.3820260             -10.3955
       132        2.0000           -0.3814082             -10.3786
       133        2.0000           -0.3729010             -10.1472
       134        2.0000           -0.3587505              -9.7621
       135        2.0000           -0.3466744              -9.4335
       136        2.0000           -0.3308698              -9.0034
       137        2.0000           -0.3209927              -8.7347
       138        2.0000           -0.3174606              -8.6385
       139        2.0000           -0.3099386              -8.4339
       140        2.0000           -0.3081334              -8.3847 (HOMO)
       141                         -0.2759356              -7.5086 (LUMO)
       142                         -0.2478525              -6.7444
       143                         -0.2455413              -6.6815
       144                         -0.2132915              -5.8040
       145                         -0.2107559              -5.7350
       146                         -0.2041964              -5.5565
       147                         -0.1861345              -5.0650
       148                         -0.1728984              -4.7048
       149                         -0.1488935              -4.0516
       150                         -0.1296849              -3.5289
       151                         -0.1262429              -3.4352
       ...                                ...                  ...
       268                          3.7305912             101.5146
      -------------------------------------------------------------
                  HL-Gap            0.0321977 Eh            0.8761 eV
             Fermi-level           -0.2919683 Eh           -7.9449 eV

     #   Z          covCN         q      C6AA      α(0)
     1   7 N        2.545    -0.122    23.685     7.228
     2   6 C        2.954     0.077    26.278     8.408
     3   6 C        2.918    -0.043    29.064     8.841
     4   6 C        2.924    -0.022    28.562     8.764
     5   6 C        2.915    -0.044    29.086     8.844
     6   6 C        2.892     0.048    26.916     8.506
     7   1 H        0.926     0.052     2.289     2.366
     8   1 H        0.926     0.055     2.257     2.350
     9   1 H        0.926     0.045     2.377     2.411
    10   6 C        2.953     0.073    26.367     8.422
    11   7 N        2.555    -0.128    23.807     7.246
    12   6 C        2.890     0.044    27.019     8.522
    13   6 C        2.915    -0.043    29.075     8.842
    14   6 C        2.922    -0.024    28.609     8.771
    15   6 C        2.918    -0.045    29.124     8.850
    16   1 H        0.926     0.045     2.386     2.415
    17   1 H        0.926     0.048     2.341     2.393
    18   1 H        0.926     0.074     2.046     2.237
    19  77 Ir       5.938    -0.155   388.048    36.428
    20   1 H        0.977     0.088     1.893     2.150
    21   5 B        2.629     0.401    16.049     6.769
    22   8 O        1.638    -0.410    21.055     6.194
    23   6 C        3.835     0.130    18.444     6.110
    24   6 C        3.755    -0.121    22.874     6.819
    25   1 H        0.925     0.053     2.278     2.360
    26   1 H        0.925     0.044     2.392     2.419
    27   1 H        0.925     0.050     2.317     2.381
    28   6 C        3.754    -0.108    22.629     6.783
    29   1 H        0.925     0.047     2.362     2.403
    30   1 H        0.925     0.041     2.438     2.442
    31   1 H        0.925     0.028     2.622     2.532
    32   6 C        3.841     0.131    18.432     6.107
    33   8 O        1.637    -0.404    20.944     6.178
    34   6 C        3.755    -0.120    22.852     6.816
    35   1 H        0.925     0.050     2.325     2.385
    36   1 H        0.925     0.046     2.376     2.411
    37   1 H        0.925     0.049     2.328     2.386
    38   6 C        3.754    -0.119    22.846     6.815
    39   1 H        0.925     0.047     2.362     2.403
    40   1 H        0.925     0.053     2.286     2.364
    41   1 H        0.925     0.045     2.389     2.417
    42   5 B        2.626     0.403    16.047     6.771
    43   8 O        1.637    -0.384    20.542     6.118
    44   6 C        3.837     0.128    18.473     6.115
    45   6 C        3.755    -0.126    22.973     6.834
    46   1 H        0.925     0.055     2.255     2.348
    47   1 H        0.925     0.056     2.248     2.345
    48   1 H        0.925     0.049     2.332     2.388
    49   6 C        3.755    -0.121    22.885     6.821
    50   1 H        0.925     0.048     2.347     2.396
    51   1 H        0.925     0.045     2.384     2.415
    52   1 H        0.925     0.053     2.285     2.364
    53   6 C        3.833     0.128    18.486     6.117
    54   8 O        1.637    -0.383    20.532     6.116
    55   6 C        3.755    -0.124    22.930     6.828
    56   1 H        0.925     0.053     2.280     2.361
    57   1 H        0.925     0.054     2.272     2.357
    58   1 H        0.925     0.048     2.350     2.397
    59   6 C        3.755    -0.123    22.920     6.826
    60   1 H        0.925     0.045     2.387     2.416
    61   1 H        0.925     0.052     2.296     2.370
    62   1 H        0.925     0.050     2.315     2.379
    63   5 B        2.625     0.400    16.086     6.781
    64   8 O        1.637    -0.377    20.421     6.100
    65   6 C        3.832     0.125    18.531     6.125
    66   6 C        3.755    -0.131    23.065     6.848
    67   1 H        0.925     0.059     2.206     2.322
    68   1 H        0.925     0.054     2.270     2.356
    69   1 H        0.925     0.049     2.329     2.387
    70   6 C        3.755    -0.129    23.036     6.844
    71   1 H        0.925     0.061     2.193     2.316
    72   1 H        0.925     0.050     2.318     2.381
    73   1 H        0.925     0.052     2.298     2.371
    74   6 C        3.828     0.127    18.504     6.121
    75   8 O        1.637    -0.381    20.499     6.111
    76   6 C        3.755    -0.124    22.930     6.828
    77   1 H        0.925     0.050     2.316     2.380
    78   1 H        0.925     0.053     2.285     2.364
    79   1 H        0.925     0.054     2.267     2.354
    80   6 C        3.755    -0.122    22.903     6.824
    81   1 H        0.925     0.041     2.440     2.443
    82   1 H        0.925     0.050     2.320     2.382
    83   1 H        0.925     0.054     2.270     2.356
    84   1 H        0.926     0.052     2.297     2.370
    85   1 H        0.926     0.049     2.338     2.391
    86   6 C        2.829    -0.019    28.464     8.742
    87   6 C        2.929    -0.037    28.927     8.820
    88   6 C        2.922    -0.038    28.946     8.823
    89   6 C        2.969    -0.000    28.034     8.685
    90   1 H        0.925     0.025     2.660     2.550
    91   6 C        2.917    -0.035    28.863     8.810
    92   1 H        0.926     0.043     2.412     2.428
    93   6 C        2.922    -0.046    29.146     8.853
    94   6 C        3.747    -0.012    20.853     6.514
    95   1 H        0.926     0.035     2.517     2.481
    96   1 H        0.926     0.033     2.543     2.494
    97   7 N        2.862    -0.001    21.284     6.852
    98   1 H        0.924     0.065     2.140     2.287
    99   1 H        0.924     0.051     2.313     2.378
   100   6 C        3.062    -0.026    28.582     8.767
   101   6 C        3.062    -0.029    28.667     8.780
   102   6 C        3.060    -0.074    29.779     8.949
   103   1 H        0.926     0.018     2.768     2.602
   104   6 C        3.058    -0.075    29.812     8.954
   105   1 H        0.926     0.024     2.666     2.553
   106   1 H        0.926     0.011     2.871     2.650
   107   1 H        0.926     0.013     2.837     2.634

 Mol. C6AA /au·bohr⁶  :     123428.266105
 Mol. C8AA /au·bohr⁸  :    3263592.280845
 Mol. α(0) /au        :        546.933399


Wiberg/Mayer (AO) data.
largest (>0.10) Wiberg bond orders for each atom

 ---------------------------------------------------------------------------
     #   Z sym  total        # sym  WBO       # sym  WBO       # sym  WBO
 ---------------------------------------------------------------------------
     1   7 N    3.398 --     6 C    1.389     2 C    1.310    19 Ir   0.439
     2   6 C    3.979 --     3 C    1.348     1 N    1.310    10 C    1.092
     3   6 C    3.988 --     4 C    1.484     2 C    1.348     9 H    0.962
                             6 C    0.106
     4   6 C    3.985 --     3 C    1.484     5 C    1.382    84 H    0.969
     5   6 C    3.980 --     6 C    1.460     4 C    1.382     8 H    0.969
     6   6 C    3.978 --     5 C    1.460     1 N    1.389     7 H    0.957
                             3 C    0.106
     7   1 H    0.997 --     6 C    0.957
     8   1 H    0.996 --     5 C    0.969
     9   1 H    0.997 --     3 C    0.962
    10   6 C    3.979 --    15 C    1.353    11 N    1.303     2 C    1.092
    11   7 N    3.401 --    12 C    1.386    10 C    1.303    19 Ir   0.431
    12   6 C    3.974 --    13 C    1.457    11 N    1.386    18 H    0.949
                            15 C    0.105
    13   6 C    3.982 --    12 C    1.457    14 C    1.383    17 H    0.969
    14   6 C    3.982 --    15 C    1.479    13 C    1.383    85 H    0.969
    15   6 C    3.989 --    14 C    1.479    10 C    1.353    16 H    0.962
                            12 C    0.105
    16   1 H    0.997 --    15 C    0.962
    17   1 H    0.997 --    13 C    0.969
    18   1 H    0.994 --    12 C    0.949
    19  77 Ir   5.174 --    63 B    0.873    42 B    0.861    21 B    0.724
                            86 C    0.587    20 H    0.527     1 N    0.439
                            11 N    0.431
    20   1 H    0.990 --    19 Ir   0.527    86 C    0.354
    21   5 B    3.266 --    33 O    1.109    22 O    1.088    19 Ir   0.724
    22   8 O    2.188 --    21 B    1.088    23 C    0.944
    23   6 C    3.944 --    24 C    0.996    28 C    0.990    22 O    0.944
                            32 C    0.941
    24   6 C    3.994 --    23 C    0.996    26 H    0.984    27 H    0.983
                            25 H    0.983
    25   1 H    0.997 --    24 C    0.983
    26   1 H    0.997 --    24 C    0.984
    27   1 H    0.997 --    24 C    0.983
    28   6 C    3.997 --    23 C    0.990    31 H    0.985    29 H    0.984
                            30 H    0.984
    29   1 H    0.997 --    28 C    0.984
    30   1 H    0.998 --    28 C    0.984
    31   1 H    0.999 --    28 C    0.985
    32   6 C    3.941 --    38 C    0.997    34 C    0.991    23 C    0.941
                            33 O    0.940
    33   8 O    2.200 --    21 B    1.109    32 C    0.940
    34   6 C    3.994 --    32 C    0.991    36 H    0.984    37 H    0.982
                            35 H    0.982
    35   1 H    0.998 --    34 C    0.982
    36   1 H    0.997 --    34 C    0.984
    37   1 H    0.997 --    34 C    0.982
    38   6 C    3.994 --    32 C    0.997    41 H    0.984    39 H    0.983
                            40 H    0.983
    39   1 H    0.998 --    38 C    0.983
    40   1 H    0.997 --    38 C    0.983
    41   1 H    0.997 --    38 C    0.984
    42   5 B    3.334 --    43 O    1.115    54 O    1.107    19 Ir   0.861
    43   8 O    2.224 --    42 B    1.115    44 C    0.937
    44   6 C    3.937 --    45 C    0.997    49 C    0.991    53 C    0.939
                            43 O    0.937
    45   6 C    3.993 --    44 C    0.997    48 H    0.983    46 H    0.982
                            47 H    0.982
    46   1 H    0.997 --    45 C    0.982
    47   1 H    0.997 --    45 C    0.982
    48   1 H    0.996 --    45 C    0.983
    49   6 C    3.994 --    44 C    0.991    50 H    0.983    51 H    0.983
                            52 H    0.979
    50   1 H    0.997 --    49 C    0.983
    51   1 H    0.998 --    49 C    0.983
    52   1 H    0.997 --    49 C    0.979
    53   6 C    3.938 --    55 C    0.996    59 C    0.991    44 C    0.939
                            54 O    0.936
    54   8 O    2.226 --    42 B    1.107    53 C    0.936
    55   6 C    3.993 --    53 C    0.996    58 H    0.983    57 H    0.983
                            56 H    0.983
    56   1 H    0.997 --    55 C    0.983
    57   1 H    0.997 --    55 C    0.983
    58   1 H    0.996 --    55 C    0.983
    59   6 C    3.994 --    53 C    0.991    61 H    0.983    62 H    0.983
                            60 H    0.982
    60   1 H    0.998 --    59 C    0.982
    61   1 H    0.996 --    59 C    0.983
    62   1 H    0.997 --    59 C    0.983
    63   5 B    3.360 --    75 O    1.118    64 O    1.111    19 Ir   0.873
    64   8 O    2.229 --    63 B    1.111    65 C    0.939
    65   6 C    3.938 --    70 C    0.996    66 C    0.991    64 O    0.939
                            74 C    0.937
    66   6 C    3.992 --    65 C    0.991    69 H    0.983    68 H    0.983
                            67 H    0.978
    67   1 H    0.996 --    66 C    0.978
    68   1 H    0.997 --    66 C    0.983
    69   1 H    0.997 --    66 C    0.983
    70   6 C    3.992 --    65 C    0.996    72 H    0.983    73 H    0.982
                            71 H    0.982
    71   1 H    0.996 --    70 C    0.982
    72   1 H    0.996 --    70 C    0.983
    73   1 H    0.997 --    70 C    0.982
    74   6 C    3.935 --    76 C    0.996    80 C    0.991    65 C    0.937
                            75 O    0.937
    75   8 O    2.232 --    63 B    1.118    74 C    0.937
    76   6 C    3.993 --    74 C    0.996    77 H    0.983    78 H    0.982
                            79 H    0.982
    77   1 H    0.996 --    76 C    0.983
    78   1 H    0.997 --    76 C    0.982
    79   1 H    0.997 --    76 C    0.982
    80   6 C    3.995 --    74 C    0.991    81 H    0.984    83 H    0.983
                            82 H    0.983
    81   1 H    0.998 --    80 C    0.984
    82   1 H    0.997 --    80 C    0.983
    83   1 H    0.996 --    80 C    0.983
    84   1 H    0.996 --     4 C    0.969
    85   1 H    0.997 --    14 C    0.969
    86   6 C    3.952 --    87 C    1.390    88 C    1.381    19 Ir   0.587
                            20 H    0.354    93 C    0.100
    87   6 C    3.988 --    89 C    1.414    86 C    1.390    90 H    0.961
                            91 C    0.102
    88   6 C    3.988 --    91 C    1.444    86 C    1.381    92 H    0.961
                            89 C    0.105
    89   6 C    3.983 --    87 C    1.414    93 C    1.409    94 C    0.991
                            88 C    0.105
    90   1 H    0.999 --    87 C    0.961
    91   6 C    3.988 --    88 C    1.444    93 C    1.433    95 H    0.969
                            87 C    0.102
    92   1 H    0.997 --    88 C    0.961
    93   6 C    3.987 --    91 C    1.433    89 C    1.409    96 H    0.969
                            86 C    0.100
    94   6 C    3.971 --    89 C    0.991    97 N    0.985    99 H    0.964
                            98 H    0.962
    95   1 H    0.997 --    91 C    0.969
    96   1 H    0.997 --    93 C    0.969
    97   7 N    3.640 --   100 C    1.231   101 C    1.231    94 C    0.985
    98   1 H    0.995 --    94 C    0.962
    99   1 H    0.997 --    94 C    0.964
   100   6 C    3.946 --   102 C    1.546    97 N    1.231   103 H    0.969
                           101 C    0.130
   101   6 C    3.942 --   104 C    1.542    97 N    1.231   105 H    0.970
                           100 C    0.130
   102   6 C    3.978 --   100 C    1.546   104 C    1.334   106 H    0.976
   103   1 H    1.000 --   100 C    0.969
   104   6 C    3.977 --   101 C    1.542   102 C    1.334   107 H    0.975
   105   1 H    0.999 --   101 C    0.970
   106   1 H    0.999 --   102 C    0.976
   107   1 H    0.999 --   104 C    0.975
 ---------------------------------------------------------------------------

Topologies differ in total number of bonds
Writing topology from bond orders to xtbtopo.mol

molecular dipole:
                 x           y           z       tot (Debye)
 q only:        0.682      -0.388      -1.383
   full:       -0.502      -0.140      -1.948       5.126
molecular quadrupole (traceless):
                xx          xy          yy          xz          yz          zz
 q only:       10.743       5.989       9.827      16.173       2.001     -20.571
  q+dip:       12.101       8.095       8.006      16.157       5.282     -20.107
   full:       10.294       9.151      10.695      14.619       2.436     -20.989


           -------------------------------------------------
          | TOTAL ENERGY             -152.624199810255 Eh   |
          | GRADIENT NORM               0.033587284991 Eh/α |
          | HOMO-LUMO GAP               0.876144667154 eV   |
           -------------------------------------------------

------------------------------------------------------------------------
 * finished run on 2021/10/08 at 07:14:57.014     
------------------------------------------------------------------------
 total:
 * wall-time:     0 d,  0 h,  0 min,  0.160 sec
 *  cpu-time:     0 d,  0 h,  0 min,  0.937 sec
 * ratio c/w:     5.850 speedup
 SCF:
 * wall-time:     0 d,  0 h,  0 min,  0.116 sec
 *  cpu-time:     0 d,  0 h,  0 min,  0.692 sec
 * ratio c/w:     5.975 speedup

