107
 energy: -152.611972557253 gnorm: 0.073709027243 xtb: 6.4.0 (f63f532)
N        -0.96510000000000   -2.11529999999997   -0.24090000000002
C        -2.24700000000000   -1.69840000000001   -0.36219999999998
C        -3.14040000000000   -2.36819999999999   -1.21199999999995
C        -2.70220000000000   -3.47559999999998   -1.93050000000002
C        -1.37779999999997   -3.89879999999998   -1.78760000000002
C        -0.54290000000003   -3.18670000000001   -0.93510000000002
H         0.49809999999998   -3.45629999999999   -0.78940000000000
H        -0.99570000000002   -4.76030000000001   -2.32770000000002
H        -4.16500000000000   -2.02890000000001   -1.31830000000001
C        -2.62130000000000   -0.50949999999996    0.44100000000003
N        -1.62599999999999    0.07330000000005    1.16019999999998
C        -1.89679999999996    1.15240000000001    1.91690000000004
C        -3.17229999999994    1.70330000000001    1.99650000000006
C        -4.20510000000003    1.11740000000006    1.26269999999997
C        -3.92609999999999    0.00249999999999    0.47820000000005
H        -4.71959999999997   -0.46419999999997   -0.09520000000000
H        -3.34629999999999    2.57510000000001    2.62070000000002
H        -1.04450000000002    1.57420000000000    2.43690000000000
Ir        0.42150000000000   -0.81650000000000    0.91330000000000
H         0.87260000000000   -2.23030000000000    1.54050000000000
B         0.50670000000000    0.41560000000002   -0.81540000000000
O         0.19500000000000   -0.04699999999999   -2.09150000000001
C         0.00649999999996    1.10039999999998   -2.95430000000000
C         0.49020000000005    0.74739999999999   -4.35780000000002
H         1.51610000000003    0.37379999999999   -4.33700000000000
H         0.44730000000001    1.62240000000000   -5.01670000000001
H        -0.14740000000000   -0.03390000000000   -4.78429999999999
C        -1.50120000000002    1.39560000000001   -2.96669999999999
H        -1.75370000000001    2.21459999999999   -3.64850000000000
H        -2.03199999999999    0.49450000000001   -3.28929999999998
H        -1.85170000000001    1.65210000000000   -1.96220000000003
C         0.84230000000005    2.20670000000001   -2.22040000000000
O         0.75200000000000    1.78259999999998   -0.83690000000000
C         2.32930000000003    2.18620000000001   -2.59899999999999
H         2.74129999999999    1.18499999999999   -2.45750000000000
H         2.48870000000000    2.51300000000001   -3.63180000000002
H         2.87199999999998    2.86270000000000   -1.93200000000000
C         0.28439999999996    3.62289999999999   -2.33660000000000
H        -0.72649999999992    3.69040000000000   -1.92910000000000
H         0.92130000000001    4.31479999999999   -1.77610000000000
H         0.26430000000001    3.94810000000000   -3.38320000000001
B         1.56299999999999    0.60959999999999    1.84840000000000
O         2.92780000000000    0.55230000000000    2.15020000000001
C         3.36330000000002    1.88660000000000    2.50259999999996
C         4.53139999999989    1.78590000000003    3.47739999999989
H         4.27910000000000    1.16089999999997    4.33689999999997
H         5.39389999999996    1.33790000000002    2.97339999999998
H         4.82390000000000    2.77869999999997    3.83820000000002
C         3.79700000000001    2.56849999999999    1.19669999999991
H         4.20020000000000    3.57090000000000    1.37679999999999
H         4.56739999999999    1.95560000000000    0.72109999999997
H         2.95239999999999    2.63260000000000    0.50539999999999
C         2.05040000000001    2.50089999999998    3.09320000000003
O         1.03750000000003    1.81619999999999    2.31910000000000
C         1.89099999999999    4.00450000000000    2.88650000000003
H         1.87290000000000    4.25440000000000    1.82409999999998
H         0.94940000000002    4.34260000000000    3.33169999999999
H         2.71079999999994    4.55150000000001    3.36630000000001
C         1.82470000000007    2.13200000000000    4.56519999999996
H         1.92610000000000    1.05330000000001    4.71320000000000
H         2.52610000000002    2.65280000000001    5.22540000000001
H         0.80629999999997    2.41580000000001    4.84900000000001
B         2.27820000000002   -1.33089999999998    0.17409999999999
O         2.89459999999998   -2.57740000000001    0.38450000000000
C         4.26930000000004   -2.48200000000000   -0.07210000000004
C         5.10900000000001   -2.05380000000003    1.14010000000001
H         4.76350000000000   -1.08740000000000    1.51749999999999
H         4.98050000000000   -2.79470000000000    1.93590000000001
H         6.17419999999999   -1.99290000000001    0.89300000000001
C         4.71949999999998   -3.84660000000007   -0.58469999999996
H         4.75279999999999   -4.56129999999998    0.24420000000004
H         5.72330000000004   -3.78370000000000   -1.02009999999997
H         4.03500000000001   -4.23600000000001   -1.34170000000002
C         4.16439999999998   -1.36219999999996   -1.16300000000003
O         3.08520000000005   -0.55030000000000   -0.65400000000001
C         5.40720000000005   -0.48870000000001   -1.31549999999990
H         6.27320000000003   -1.09010000000000   -1.61529999999999
H         5.23300000000001    0.26930000000005   -2.08589999999996
H         5.64270000000000    0.02650000000000   -0.38239999999994
C         3.71799999999999   -1.89830000000003   -2.53109999999986
H         2.82530000000004   -2.52160000000002   -2.42740000000000
H         3.46089999999997   -1.05250000000000   -3.17550000000003
H         4.50570000000004   -2.48290000000004   -3.01789999999997
H        -3.38500000000001   -4.00129999999998   -2.59309999999998
H        -5.21399999999999    1.52080000000002    1.29960000000002
C         0.23589999999999   -1.68139999999999    2.96029999999999
C        -1.01686239592972   -2.14900238034041    3.35183683786025
C         1.20130904166365   -1.50678443699420    3.95113917658616
C        -1.32899220001165   -2.36585031299665    4.69207043051813
H        -1.77544297752704   -2.36880172220327    2.60870376731476
C         0.89510122837322   -1.68724294943254    5.29187291250014
H         2.20570512592722   -1.22592939741973    3.66372195349470
C        -0.37065606286130   -2.11058582227712    5.66921599560203
C        -2.68489764900457   -2.89057246770616    5.09683473295380
H         1.65017788708985   -1.51680731622432    6.04942580213626
H        -0.61161740804157   -2.25987250579483    6.71461727826952
N        -3.32915850633079   -2.01298195726857    6.05061180255239
H        -2.57703044838130   -3.87384296051668    5.56660395698633
H        -3.32340696542312   -2.99560197516479    4.21274222422697
C        -3.72699345584758   -0.73818256217798    5.78604249208909
C        -3.58801583325495   -2.28936384730779    7.35778082621258
C        -4.25552437404328   -0.19889674945123    6.93032030833385
H        -3.59467855411721   -0.31312329322204    4.80639213673294
C        -4.16786945875547   -1.18750354883472    7.93203282122548
H        -3.34786519172191   -3.24810633526246    7.78314299805037
H        -4.66242237519524    0.79134572750465    7.04174195703687
H        -4.49518232150264   -1.09698808437222    8.95341256234647
107
 energy: -152.618392341460 gnorm: 0.045048202347 xtb: 6.4.0 (f63f532)
N        -0.96278332877545   -2.10135102611362   -0.24938856334369
C        -2.24121758989001   -1.69135057504593   -0.36277537917756
C        -3.13521568849604   -2.36223208879404   -1.20633199142768
C        -2.70440868764666   -3.46343430300400   -1.92207980535886
C        -1.38427100003513   -3.88228787290208   -1.78241161332941
C        -0.55449340201835   -3.16799009936960   -0.94016647003391
H         0.47913165870405   -3.44809948840850   -0.79011156458779
H        -1.00776791113550   -4.74228178266182   -2.31764542171376
H        -4.15572416894380   -2.02682191726553   -1.31072794524753
C        -2.61307398984713   -0.51577299518991    0.43850628066444
N        -1.62138718275137    0.06036423805732    1.15470283693378
C        -1.89861188723587    1.13485840272407    1.89744396963606
C        -3.16428590690524    1.68754680228778    1.98145887182475
C        -4.19603523136196    1.10402634014462    1.25431704185864
C        -3.91508381461586   -0.00291170961338    0.47464185136670
H        -4.70645026287860   -0.46512413622448   -0.09537385294317
H        -3.33924760827973    2.55067744911209    2.60849283132442
H        -1.05543405127264    1.55294151255773    2.42641318371995
Ir        0.42150000000000   -0.81650000000000    0.91330000000000
H         0.87260000000000   -2.23030000000000    1.54050000000000
B         0.48753320434199    0.42729583842130   -0.78718314820355
O         0.17497008665638   -0.03431105231450   -2.05969198494469
C         0.01121783525639    1.09600835728907   -2.94252227846014
C         0.49058584728512    0.74568367072880   -4.34730408077426
H         1.50953465440094    0.36896864093358   -4.32595175555343
H         0.44593953809207    1.62088485391860   -4.99619275308884
H        -0.14820611930638   -0.03019105110472   -4.76787176054076
C        -1.49285914818882    1.39865684032308   -2.97029838194937
H        -1.73078779974788    2.21127512326403   -3.65505990469621
H        -2.02282310149460    0.50145999471789   -3.29014660706025
H        -1.84002837093599    1.65407696406497   -1.96901597501887
C         0.83260779239864    2.20674839794817   -2.21226797802444
O         0.75517319848091    1.78247060571237   -0.83454349375359
C         2.31508987814202    2.18988778570108   -2.59991835006027
H         2.71914169758507    1.19079223143432   -2.44933984600842
H         2.46680190405515    2.51070030779170   -3.62988440146455
H         2.85745544412527    2.86495434624286   -1.93895186712122
C         0.28133449095991    3.62277425801965   -2.34090725777839
H        -0.72199512924609    3.69205518394034   -1.92875493618562
H         0.92084191077333    4.30668634906617   -1.78441380552026
H         0.26392174853260    3.93457335394542   -3.38534206824706
B         1.56543247747788    0.62290430195900    1.84581787194752
O         2.92520766962215    0.56893269284063    2.13124916740990
C         3.36322928344542    1.88892090013612    2.50803701851332
C         4.53233628295601    1.78973831221636    3.47961412170601
H         4.27956804730958    1.16175893007541    4.32984111959826
H         5.38764707126799    1.34533720981238    2.97233378359845
H         4.81520423914357    2.77975343771833    3.83623804865332
C         3.80016243361328    2.57596005491021    1.21012268593236
H         4.20158618274675    3.57150977392641    1.39434082483915
H         4.56404090962329    1.96380646339868    0.73360639508310
H         2.95201544564223    2.62807109724337    0.52874098874118
C         2.05261609509504    2.50638004658653    3.08798729296917
O         1.04033311014263    1.81140591510606    2.33324459681547
C         1.89409561120053    4.00846286570136    2.88777535197069
H         1.86878656339189    4.25216148552916    1.82948575615052
H         0.95655160758890    4.33726654709868    3.33443784490382
H         2.71455068028038    4.54452079428695    3.36428960179884
C         1.83133168257634    2.14398018907211    4.56070611001654
H         1.93136260900273    1.06880631613005    4.70029612578743
H         2.53251852941035    2.66581878839745    5.20959196653173
H         0.81689330084610    2.42245070974533    4.84507871395872
B         2.27820000000002   -1.33089999999998    0.17409999999999
O         2.90092294949720   -2.56172758184882    0.39161058022133
C         4.26532449822247   -2.48373546742392   -0.07679808132622
C         5.10976965376732   -2.05880421549483    1.12893837966676
H         4.75347115641203   -1.09856555269915    1.49947028266950
H         4.97815895969841   -2.79393824128888    1.92204423845435
H         6.16750607191462   -1.99878592536998    0.87700120924254
C         4.71995905379658   -3.84604714125295   -0.58631885599984
H         4.74956417513657   -4.55019583241736    0.24388870520052
H         5.71775335464060   -3.77460765514984   -1.01847341484966
H         4.03441032330983   -4.23364340761761   -1.33510348585371
C         4.16639166849769   -1.36103881929662   -1.15730722476984
O         3.07411610226762   -0.56412807236935   -0.66243558605814
C         5.40979171779983   -0.49293484162140   -1.31494162842276
H         6.26606908531772   -1.09879171092032   -1.61029379763982
H         5.23166921616133    0.25800594585391   -2.08348033947664
H         5.63726478076107    0.02191014259955   -0.38600417144710
C         3.72978738030621   -1.90063406779620   -2.52537448813540
H         2.83759292659992   -2.51584645639672   -2.41675391458391
H         3.47268846700036   -1.05919744144475   -3.16742787520324
H         4.51991496344341   -2.47788023871967   -3.00277715517022
H        -3.38351805688140   -3.98823235602344   -2.58028057415373
H        -5.19993258208461    1.50556084283825    1.29502285943708
C         0.23590000000001   -1.68139999999996    2.96029999999999
C        -1.01695760028937   -2.14735882113964    3.35296250745500
C         1.20092042034851   -1.50852861789141    3.95192397447685
C        -1.32839350684970   -2.36315273437019    4.69072363843455
H        -1.77517400559330   -2.36602703055427    2.61105681969349
C         0.89315450928965   -1.69016160853138    5.29015973243832
H         2.20372680340020   -1.22908297118013    3.66570399952855
C        -0.37110259764459   -2.11112455479564    5.66552923890646
C        -2.68633595831804   -2.88541708124445    5.09742228603821
H         1.64694764318264   -1.52184032584591    6.04745704617311
H        -0.61189684576680   -2.26094546629002    6.70892440335997
N        -3.32886147126807   -2.01027519747708    6.04984811159461
H        -2.57961441303739   -3.86894639306316    5.56579765689061
H        -3.32496948169659   -2.99027326112093    4.21369206399828
C        -3.72564389784328   -0.73771279696456    5.78650314596992
C        -3.58841190393906   -2.28736286785018    7.35394532715039
C        -4.25374406943693   -0.19896119542349    6.92914018105594
H        -3.59341739277595   -0.31295726463817    4.80941552923981
C        -4.16708350685027   -1.18731661573482    7.92899224456864
H        -3.35003927466060   -3.24464346795718    7.77778093343822
H        -4.65914563708455    0.78921431365259    7.04080275637661
H        -4.49394836137674   -1.09774747446710    8.94802721673164
107
 energy: -152.620022139541 gnorm: 0.036020174199 xtb: 6.4.0 (f63f532)
N        -0.95709832095791   -2.09553539480742   -0.25528251429084
C        -2.23366188784663   -1.68689316982037   -0.36382007630909
C        -3.13220057216185   -2.35614843614660   -1.20318316274915
C        -2.70884401308803   -3.45380332984128   -1.92054528488684
C        -1.38899022669441   -3.87293949260461   -1.78426767209335
C        -0.56004679992877   -3.15952692033058   -0.94568257018305
H         0.47238961500620   -3.44305805125502   -0.80335954877531
H        -1.01777667921413   -4.73198682742948   -2.31832693107784
H        -4.15135820331673   -2.02162849841016   -1.30022331475354
C        -2.60214907918358   -0.52036030055856    0.43393952414661
N        -1.61370804030359    0.04873277264247    1.15428503489745
C        -1.89678162962082    1.11798313725289    1.89193802073662
C        -3.15709931143667    1.67424070054298    1.97517216392750
C        -4.18899926654535    1.09310386383714    1.24633489794626
C        -3.90407743649107   -0.00756354457178    0.46684465200025
H        -4.69240457716026   -0.46919390894433   -0.10348433780796
H        -3.33214066716850    2.53460655792387    2.60050671759825
H        -1.05922473777517    1.53930544963597    2.42421578474312
Ir        0.42150000000000   -0.81650000000000    0.91330000000000
H         0.87260000000000   -2.23030000000000    1.54050000000000
B         0.49024240779473    0.43947114761694   -0.76289894291388
O         0.15436597295413   -0.02423202928996   -2.02744576489604
C         0.00697944969662    1.09257116890913   -2.92171459551822
C         0.49217242021854    0.73535144780810   -4.32317142123799
H         1.50730193115139    0.35467033281590   -4.30204908601212
H         0.44837284983047    1.61329315218579   -4.96288766608159
H        -0.15067721549146   -0.03438376171186   -4.74226478230000
C        -1.49519439002858    1.40533659712282   -2.97061902022683
H        -1.71377276559467    2.21374091112930   -3.66196265062540
H        -2.02446888299104    0.51045377964449   -3.29130105938933
H        -1.84586073321966    1.66509448015836   -1.97395527433118
C         0.82537084566609    2.20645375747149   -2.19950995743293
O         0.75837543866381    1.78852652030032   -0.82609193930090
C         2.30548833069585    2.19370110384411   -2.59680420877578
H         2.70639332880395    1.19622321870202   -2.43830890529282
H         2.44420798406717    2.50603423784045   -3.62803276987671
H         2.84798097554502    2.87391344949856   -1.94483620588438
C         0.27200526243164    3.62102921291957   -2.33958705873228
H        -0.72734825315835    3.69688935504373   -1.92441874777349
H         0.91659910118855    4.30417398943929   -1.79309651640547
H         0.25565533408104    3.91506061839803   -3.38577301159907
B         1.56604418739493    0.62884884257784    1.85615775539427
O         2.92383563943118    0.58203221057489    2.11655460835132
C         3.36161371012485    1.89225439783561    2.50841303431993
C         4.52837212591762    1.79122697853506    3.48350655706705
H         4.27780770602045    1.15903622673881    4.32831632561520
H         5.38154465783580    1.35352629934109    2.97255398704484
H         4.80172975457372    2.78063181810982    3.83877653749117
C         3.80462454099404    2.59134619351862    1.21921777887906
H         4.20301982261734    3.58282959512883    1.41159650883131
H         4.56781891923735    1.98159004182148    0.74318281523628
H         2.95562746883722    2.63814869694420    0.54160375879200
C         2.05303286408990    2.50914792135210    3.08729399038159
O         1.04229010400315    1.80641007647004    2.34676008969519
C         1.89652229361276    4.01105156561691    2.88378470486152
H         1.86358542418614    4.25301679838962    1.82749403011010
H         0.96403133800896    4.33646323205561    3.33669230503151
H         2.72057473850996    4.53838980329067    3.35581388839796
C         1.84087497472303    2.15774903376911    4.56477210504149
H         1.94177479319932    1.08448213134125    4.70176981917118
H         2.54499471914135    2.68426681000860    5.20117167864387
H         0.82871417359859    2.43501670597066    4.84972938615452
B         2.27820000000003   -1.33089999999997    0.17409999999999
O         2.90295613634522   -2.54968255639778    0.40147495691939
C         4.25809073190360   -2.48243275401076   -0.07582680504334
C         5.11322490916458   -2.06080142345266    1.12311663982159
H         4.75208582795801   -1.10322320204453    1.49013047400400
H         4.98222899447372   -2.79416696424908    1.91437832285505
H         6.16534799020374   -2.00201744025253    0.86237209625741
C         4.71141401373657   -3.84484307059201   -0.58745316948466
H         4.74328943023262   -4.54214973876412    0.24463118069313
H         5.70524510348247   -3.76467336606645   -1.01849857932114
H         4.02582930977084   -4.23431903509917   -1.33172110910330
C         4.16195469007139   -1.36225552493021   -1.15512253809840
O         3.06230575711715   -0.57420492531755   -0.67133468973492
C         5.40699780636680   -0.49599631699876   -1.30834771203229
H         6.25568307068550   -1.10940466049607   -1.59735850912156
H         5.23084446646828    0.24789195903530   -2.08029013675794
H         5.63071321159116    0.02155048654189   -0.38268920626663
C         3.74083450277671   -1.90626800720485   -2.52691874340163
H         2.84952949957678   -2.51858425216809   -2.41761131318988
H         3.48785414451107   -1.06691731088209   -3.16990937750138
H         4.53741185515842   -2.47949528763104   -2.99078614241921
H        -3.38915092743951   -3.97836772810254   -2.57322127986635
H        -5.19085912131033    1.49230598578153    1.28885646465080
C         0.23590000000004   -1.68139999999989    2.96030000000000
C        -1.01793693629190   -2.14520385691675    3.35239741552534
C         1.20100209884030   -1.50985770397382    3.95226480961323
C        -1.32945081820541   -2.36044881616888    4.68870013887749
H        -1.77593826419505   -2.36194522749983    2.61047818096638
C         0.89196205869404   -1.69339278507617    5.28920188221775
H         2.20317573087685   -1.23175591818190    3.66619563501991
C        -0.37243614764801   -2.11233506388495    5.66310034572483
C        -2.68958511970853   -2.88016666673553    5.09554393833983
H         1.64561334887850   -1.52880590284439    6.04654200510852
H        -0.61328793952549   -2.26383701079527    6.70538989843555
N        -3.32884005443798   -2.00638161960827    6.04753688206727
H        -2.58358313983873   -3.86457600741184    5.56181574260001
H        -3.32778784483970   -2.98328675835115    4.21123275490239
C        -3.72330231828733   -0.73438913798776    5.78581946965708
C        -3.58917155199424   -2.28496402514521    7.34946685958889
C        -4.25153512798956   -0.19615432953827    6.92811075955958
H        -3.59058278929140   -0.30886050758117    4.81022439841690
C        -4.16689079038028   -1.18578190857713    7.92618371385642
H        -3.35300186423178   -3.24242390371047    7.77178164260047
H        -4.65539238720170    0.79133608791756    7.04062698857537
H        -4.49407093712584   -1.09762556000642    8.94404305915276
107
 energy: -152.620587187740 gnorm: 0.035258147344 xtb: 6.4.0 (f63f532)
N        -0.94918541421857   -2.09304586433561   -0.26561676125298
C        -2.22684448821629   -1.68497698955078   -0.36802514434548
C        -3.13048294518297   -2.35441138184538   -1.20304598495800
C        -2.71239338923069   -3.45171558809357   -1.92258504178144
C        -1.39064094712153   -3.87083418920071   -1.79257389431155
C        -0.55772432340517   -3.15643474803618   -0.95851891354654
H         0.47472923230352   -3.44369343919651   -0.82129308491191
H        -1.02328621996390   -4.73022448258369   -2.32770764341360
H        -4.14982207684612   -2.01877955215485   -1.29337171213838
C        -2.59364287443685   -0.52249091333864    0.43036672572320
N        -1.60622145221143    0.04455953196039    1.15433579874709
C        -1.89256557650405    1.11188888713670    1.89238170875600
C        -3.15248316848702    1.66848758758640    1.97471277044593
C        -4.18431362583994    1.08824179072983    1.24237450348965
C        -3.89639955968438   -0.00970171431966    0.46155048289844
H        -4.68186585988343   -0.47018993246203   -0.11342152897567
H        -3.32884875493687    2.52669263632666    2.60153868355064
H        -1.05888860048444    1.53235002375623    2.43208275647003
Ir        0.42150000000000   -0.81650000000000    0.91330000000000
H         0.87260000000000   -2.23030000000000    1.54050000000000
B         0.47592872515598    0.45483424408261   -0.74237276218737
O         0.13222667950810   -0.01536103972186   -2.00237992588774
C        -0.00148074249796    1.09224999487595   -2.90439375651233
C         0.49194336844165    0.72295024556531   -4.30069740524810
H         1.50439910089641    0.33602347679080   -4.27200604096068
H         0.45625276721676    1.59997576415489   -4.94154487838592
H        -0.15393420870440   -0.04418754199492   -4.71944034032108
C        -1.50229378275631    1.41372400409341   -2.97089271998044
H        -1.70547816049476    2.21957346558432   -3.66934516153338
H        -2.03253858765203    0.52015686801824   -3.29294216183110
H        -1.86183509398079    1.68088142407548   -1.97948664138498
C         0.81790351749672    2.20879975075349   -2.18702953130356
O         0.75821080156818    1.79891729037140   -0.81418985765062
C         2.29677811673486    2.19659519242387   -2.59242149375530
H         2.69949232407488    1.20111154505767   -2.42652518129964
H         2.42716419767865    2.49995252551356   -3.62702509684539
H         2.84034938809218    2.88442109050975   -1.94960835741105
C         0.26370413991038    3.62309356330991   -2.33654704604767
H        -0.73370050152066    3.70367384683507   -1.91799239563570
H         0.91189807058689    4.31095714837954   -1.80042882016303
H         0.24343126236786    3.90364791801622   -3.38613170810970
B         1.56734340414811    0.63682773647114    1.85316883907295
O         2.92427913014082    0.59215808893163    2.10268078395170
C         3.36118184019365    1.89672982514434    2.50724358078579
C         4.52595175103123    1.79121913930073    3.48587260647276
H         4.27537758028378    1.15326608152768    4.32616115776854
H         5.38143508026462    1.35980500496840    2.97370785014322
H         4.79344735348205    2.77994974137133    3.84664779950655
C         3.80997814083560    2.60706753267677    1.22508641230801
H         4.20471252714223    3.59738672579282    1.42791509026819
H         4.57696685234004    2.00228205544748    0.74892389403502
H         2.96341864134891    2.65618803433027    0.54498847595447
C         2.05246265538242    2.51188603143516    3.08811499351081
O         1.04048258374906    1.80348544568624    2.35808493369182
C         1.89475552781965    4.01407309407207    2.88063111462177
H         1.85423965813044    4.25382524096161    1.82417768851844
H         0.96649128914925    4.34139833721906    3.34048299070823
H         2.72401972760744    4.53921935975392    3.34530762561488
C         1.85003060773422    2.16998210966073    4.57030765739763
H         1.95304261025476    1.09773684904193    4.71220189525207
H         2.55814316930179    2.70223344126705    5.19685505999752
H         0.83948131107451    2.44848801952983    4.85906297340540
B         2.27820000000004   -1.33089999999997    0.17409999999999
O         2.90422318966964   -2.54350285867643    0.41205697530371
C         4.25346292875243   -2.48226149500713   -0.07348397929615
C         5.11790356412689   -2.06160574182152    1.12024934110510
H         4.75831332119408   -1.10395892040894    1.48816390018880
H         4.99035449552502   -2.79505943956097    1.91168639093795
H         6.16753807029524   -2.00396676476530    0.85167902565137
C         4.70265683878124   -3.84687382166611   -0.58568288639266
H         4.73787314276427   -4.54214494512132    0.24769462532986
H         5.69433354835139   -3.76462164462116   -1.02032571279736
H         4.01422566881187   -4.23719173425646   -1.32668569516995
C         4.15858741207442   -1.36422160076797   -1.15514504787058
O         3.05361263439206   -0.58018819511119   -0.68127255731806
C         5.40393495863513   -0.49646060477649   -1.30317075796045
H         6.25235175349304   -1.11370505622916   -1.58384341149838
H         5.23246782859183    0.24329238940494   -2.07990456615576
H         5.62218449582622    0.02482051394146   -0.37849083734352
C         3.75070835887329   -1.91254277295495   -2.53027276695717
H         2.85977290621407   -2.52586242289174   -2.42658463508340
H         3.50337431653292   -1.07480890012829   -3.17738757993416
H         4.55376517782562   -2.48492078568096   -2.98291700922513
H        -3.39587739080329   -3.97544452025820   -2.57223194497864
H        -5.18627735808319    1.48634621676293    1.28431317450335
C         0.23590000000008   -1.68139999999982    2.96030000000001
C        -1.01902981225638   -2.14327874136735    3.35089549751219
C         1.20109229871689   -1.51169835809401    3.95257295323089
C        -1.33126896892889   -2.35881186761053    4.68665533235232
H        -1.77682034196943   -2.35806958280588    2.60824531398550
C         0.89117345493926   -1.69687205357347    5.28907401638617
H         2.20341579437830   -1.23425737962954    3.66661857146566
C        -0.37418389560657   -2.11417936202577    5.66187902461572
C        -2.69323206086274   -2.87578226186649    5.09228723666649
H         1.64495797951937   -1.53521412290057    6.04686726708711
H        -0.61556128466702   -2.26704445770386    6.70380286277906
N        -3.32974593501616   -2.00211805904181    6.04479344975044
H        -2.58898388478810   -3.86137124192817    5.55647395833082
H        -3.33083792000515   -2.97604413960714    4.20710372471796
C        -3.72131447228752   -0.72918352387469    5.78471840644566
C        -3.59147431124504   -2.28241762505573    7.34570457827978
C        -4.24939158953344   -0.19150368177808    6.92755256365434
H        -3.58720659806219   -0.30217845273065    4.80991000748840
C        -4.16740442913943   -1.18297859996975    7.92411554279834
H        -3.35752220553570   -3.24100856537417    7.76677163737372
H        -4.65122935989049    0.79660271325511    7.04131963902531
H        -4.49496992918158   -1.09595280257946    8.94187240909000
107
 energy: -152.621209005099 gnorm: 0.035927518656 xtb: 6.4.0 (f63f532)
N        -0.93884761114329   -2.09430054339530   -0.27857725134306
C        -2.21798565386344   -1.68513980360139   -0.37414057824831
C        -3.12743087478736   -2.35415230643542   -1.20514523158989
C        -2.71550796102292   -3.45063318106964   -1.92891443834531
C        -1.39111535724599   -3.86920444300068   -1.80871698044363
C        -0.55256046261256   -3.15555858108615   -0.97831771101128
H         0.48154046908247   -3.44440794761820   -0.85181400888357
H        -1.02818472165547   -4.72810102950986   -2.34800651188674
H        -4.14760615413613   -2.01740940976994   -1.28582932260676
C        -2.58269925946530   -0.52567769868818    0.42615405235810
N        -1.59697835645533    0.03638175754001    1.15922101926561
C        -1.88682252377273    1.10169298441143    1.90055237261342
C        -3.14622992375691    1.66053923440767    1.97819038677065
C        -4.17662663765029    1.08491251197981    1.23698806775982