96
 energy: -144.534872017944 gnorm: 0.000193803752 xtb: 6.4.1 (1a32961)
N        -0.94051635114792   -2.02410714040498   -0.36636575767668
C        -2.17874817595166   -1.52740118311689   -0.53891837079703
C        -3.03808300973536   -2.05825857270069   -1.50827255187225
C        -2.61570973319580   -3.10478644267718   -2.29962484854337
C        -1.33384633681592   -3.61125084590630   -2.10628117455679
C        -0.54365966808482   -3.03587415683671   -1.13234246188132
H         0.45720888404334   -3.39715462643442   -0.94349893405303
H        -0.96320560106800   -4.43071662590590   -2.70014231746635
H        -4.02621685154399   -1.65285601851135   -1.64935273352685
C        -2.55511884264352   -0.41371525667276    0.32723521296245
N        -1.60339325687190    0.04687524550696    1.16467590158238
C        -1.90075279300272    1.05625590609771    1.97800196123888
C        -3.13831684087816    1.66793855608094    2.01171789848836
C        -4.12918355761158    1.20940594304937    1.14923463380313
C        -3.83044537729133    0.16287189242404    0.30239939855695
H        -4.58716582232052   -0.20670074020348   -0.36911928471740
H        -3.32638058960309    2.47793744161861    2.69749117473327
H        -1.09613839299132    1.38396056549636    2.61753704297797
Ir        0.42150000000005   -0.81649999999997    0.91330000000002
H         0.87260000000006   -2.23029999999998    1.54050000000004
B         0.40908631305468    0.58597966274752   -0.62961484063479
O        -0.21870008931948    0.28927765899080   -1.82602802473926
C        -0.30208572622862    1.46433600711232   -2.64009408032986
C        -0.03045956217910    1.10145918148974   -4.09777052332445
H         0.89318940447754    0.53954112083893   -4.18659894285511
H         0.02912241088114    2.00246920103636   -4.70276481830533
H        -0.84303776487253    0.48202672391611   -4.46970012871126
C        -1.73585623234081    1.99775326868250   -2.50915707145735
H        -1.88871531707487    2.87094645853635   -3.13620703627264
H        -2.42654001756444    1.21478584029019   -2.81579065979873
H        -1.94803120359164    2.24772792780905   -1.47155832730762
C         0.75853067264891    2.40854012654377   -1.98438419103851
O         0.85771637641752    1.88556801434341   -0.65233033510005
C         2.14689093075483    2.26057878628070   -2.61866265265794
H         2.44849741588952    1.21701505318445   -2.57201970770188
H         2.15640931053003    2.61832145922213   -3.64414872063817
H         2.85966882039943    2.83820535997710   -2.03494701284842
C         0.37025434410656    3.88501419070785   -1.93964304523894
H        -0.51771901168703    4.04152491669260   -1.33522567336757
H         1.18489144256746    4.45378797524161   -1.49790198982153
H         0.19287660762754    4.25336341350134   -2.94685206233798
B         1.57854441252723    0.64427605817288    1.85404764062745
O         2.94588923113934    0.77167299251841    1.87586182369555
C         3.31138819367636    2.05163343885302    2.41264644238087
C         4.55208845666523    1.91130831052471    3.29285490503808
H         4.41329663991875    1.14585806422389    4.04919517425794
H         5.39863221782350    1.62529465232440    2.67382257581341
H         4.77633914737922    2.85939420710397    3.77418843142162
C         3.63150506340421    2.94935754825168    1.21166015002349
H         3.90325742708169    3.95321286826234    1.52397315222372
H         4.46282427427589    2.51196987352475    0.66340667649875
H         2.76936773342040    2.97202917679865    0.55014796059997
C         2.01137142836195    2.49216931183325    3.16879598517094
O         1.00253362837724    1.66880067572449    2.56835385565076
C         1.63070802720347    3.96090510912612    2.99039730396242
H         1.41167061262203    4.17406539719590    1.94956636077212
H         0.73955049186596    4.17075777141590    3.57682693802587
H         2.43607723331851    4.60287292442780    3.33661202763434
C         2.04025539584971    2.15779072408961    4.66529916426198
H         2.27455886061108    1.10746515916103    4.81308999899200
H         2.76454398234754    2.77379615687291    5.18955537964908
H         1.05348024816253    2.34098148123998    5.08450605528615
B         2.27820000000029   -1.33090000000017    0.17409999999885
O         3.09274936008357   -2.30128980013100    0.71790859302924
C         4.38514848315830   -2.27577970717658    0.09892997021744
C         5.32494775926614   -1.57131728645585    1.08331481619906
H         4.91057967806162   -0.59818350908576    1.33058237196522
H         5.36886351351236   -2.15892675989077    1.99698283147211
H         6.32723963238868   -1.47196072308107    0.67853260960242
C         4.86857168824114   -3.70878883386134   -0.12476963502049
H         4.98545180851825   -4.19221409390994    0.84159478925832
H         5.82747732435143   -3.70522114164315   -0.63515544815894
H         4.15223724083897   -4.28300847639850   -0.70262204635727
C         4.12842379325844   -1.44775341599772   -1.21067389677929
O         2.87647858851776   -0.79748993524334   -0.94159780987616
C         5.18460260950723   -0.38607408415335   -1.51322234159865
H         6.16255883921186   -0.84565295821455   -1.62555563359032
H         4.92530601680204    0.11983687764103   -2.43976914200791
H         5.21289762291120    0.35339063707155   -0.72065820749176
C         3.92603321840594   -2.32265092306530   -2.45499893525482
H         3.14193517981124   -3.05330803891772   -2.27787876195144
H         3.61083970437839   -1.68664698931537   -3.27862533048061
H         4.84639421016800   -2.82803650846636   -2.73120698988377
H        -3.26677192595592   -3.52010716734112   -3.05371267503449
H        -5.11042801555454    1.65925714271430    1.14185431025983
C         0.23589999999823   -1.68140000000040    2.96029999999992
C        -1.04439222633660   -2.06579895700716    3.35814997010647
C         1.20441968133333   -1.52582221848824    3.95088289935559
C        -1.37743208160825   -2.19265534729558    4.69566648892897
H        -1.80733505350291   -2.27058454120920    2.62228406263862
C         0.87934581099020   -1.65712013391590    5.28963018944154
H         2.22105633286707   -1.30102661834681    3.67066372495755
C        -0.41838779358025   -1.97617787301068    5.67153578344605
H        -2.37869404886788   -2.46451691217710    4.99225281424819
Cl        2.10569022662810   -1.43391640356015    6.49635060761597
Cl       -0.83819687248938   -2.12592676399249    7.34854758607602
