34
 energy: -53.045872773969 gnorm: 0.090307160448 xtb: 6.4.1 (1a32961)
N         0.01553000000000   -1.75055000000000    0.04245000000000
C        -0.04586000000000   -3.16955000000000    0.09427000000000
O        -1.10940000000000   -3.76955000000000    0.13306000000000
O         1.18864000000000   -3.73724000000000    0.09736000000000
C         1.21155000000000   -5.17709000000000    0.14951000000000
C         0.95849000000000   -5.75917000000000   -1.23824000000000
C         2.59038000000000   -5.60149000000000    0.64392000000000
C         1.15993000000000   -0.93090000000000    0.01236000000000
C         2.54048000000000   -1.23001000000000    0.00202000000000
C         3.46967000000000   -0.18412000000000   -0.00886000000000
C         3.05307000000000    1.13785000000000   -0.01269000000000
C         1.69152000000000    1.44062000000000   -0.00968000000000
C         0.73273000000000    0.40178000000000    0.00250000000000
C        -0.68877000000000    0.40846000000000    0.00822000000000
C        -1.64818000000000    1.44705000000000    0.00095000000000
C        -3.01041000000000    1.14213000000000   -0.00004000000000
C        -3.42805000000000   -0.18111000000000    0.00358000000000
C        -2.49745000000000   -1.22386000000000    0.01349000000000
C        -1.11914000000000   -0.91814000000000    0.02026000000000
H         0.46057000000000   -5.53987000000000    0.86237000000000
H         1.68108000000000   -5.36758000000000   -1.96267000000000
H        -0.03544000000000   -5.49046000000000   -1.60899000000000
H         1.03247000000000   -6.85125000000000   -1.22475000000000
H         3.37824000000000   -5.22351000000000   -0.01722000000000
H         2.67267000000000   -6.69210000000000    0.69575000000000
H         2.78802000000000   -5.19002000000000    1.63913000000000
H         2.91283000000000   -2.24875000000000    0.00843000000000
H         4.53291000000000   -0.41406000000000   -0.00985000000000
H         3.78564000000000    1.94065000000000   -0.01645000000000
H         1.37052000000000    2.47891000000000   -0.01267000000000
H        -1.32940000000000    2.48589000000000   -0.00665000000000
H        -3.74448000000000    1.94344000000000   -0.00672000000000
H        -4.49044000000000   -0.41369000000000   -0.00149000000000
H        -2.85675000000000   -2.24946000000000    0.01497000000000
34
 energy: -53.053380187830 gnorm: 0.032576511762 xtb: 6.4.1 (1a32961)
N         0.02137100798927   -1.76092820573858    0.03915205570056
C        -0.03888402687506   -3.15586179843450    0.08873799610385
O        -1.08684661045548   -3.75654987090025    0.13443756311555
O         1.17631612166050   -3.72839394639482    0.09520323618856
C         1.21657166254425   -5.17146671375399    0.13759286463682
C         0.95076858583807   -5.74972454975499   -1.24778452415486
C         2.59395310780255   -5.57913017501353    0.65001413204891
C         1.16060695111365   -0.93436650981717    0.01607067257091
C         2.52025072323640   -1.23969964464985    0.00788269313919
C         3.43822028518034   -0.19815927831188   -0.00613487788998
C         3.02772321018434    1.12941370636441   -0.01177197428796
C         1.68100677153293    1.44183913356498   -0.00867925474653
C         0.74049512098834    0.40961100534834    0.00375298688820
C        -0.69213065999524    0.41445687247838    0.00826225180506
C        -1.63454192014437    1.44598768027658   -0.00095526320694
C        -2.98099848062239    1.13131083039264   -0.00082498130413
C        -3.39225268521215   -0.19692842744801    0.00458812777790
C        -2.47299310461763   -1.23682474845301    0.01734743486055
C        -1.11398853084372   -0.92596328588771    0.02348961970669
H         0.44615748457691   -5.51813944224716    0.83823232122078
H         1.68299565424665   -5.36450376284449   -1.95802344612493
H        -0.04597928273511   -5.48192020666823   -1.59926048954933
H         1.02625132078759   -6.83485473446116   -1.21621796451244
H         3.37110965595881   -5.21394968114536   -0.02085871155825
H         2.65738691807004   -6.66434363794503    0.69824607209302
H         2.77875255632029   -5.17393684930422    1.64458851928847
H         2.87820750391979   -2.25667168784438    0.01121152736352
H         4.49532552846408   -0.43022478033911   -0.01166456725278
H         3.76178622565209    1.92422475124139   -0.01883792266828
H         1.35886650060755    2.47352932108826   -0.01431961157571
H        -1.31580945031694    2.47877577414608   -0.00788747585086
H        -3.71645226434676    1.92507599808199   -0.00675758056608
H        -4.44920284639344   -0.42992472705459   -0.00086753220804
H        -2.82087303411614   -2.25850840857108    0.01966610294858
34
 energy: -53.054672521915 gnorm: 0.009613426296 xtb: 6.4.1 (1a32961)
N         0.02656091296217   -1.76688196817177    0.03771766784590
C        -0.03535614186526   -3.14326102463299    0.09048084816643
O        -1.07751360871671   -3.75324388274544    0.13733601259248
O         1.16853152318816   -3.71624549889132    0.09058303441724
C         1.21327987603130   -5.16212395922887    0.13127147388374
C         0.94902562889739   -5.73888047655450   -1.25518899654584
C         2.58959426262448   -5.55813895202652    0.65124703808060
C         1.16232437122124   -0.93764456344779    0.01756168005600
C         2.51030637530627   -1.24990834684797    0.01065257742326
C         3.42438484202868   -0.20962720260125   -0.00440300812855
C         3.01804236008513    1.12057759142436   -0.01170534490756
C         1.67575689565085    1.44033530638934   -0.00845264092777
C         0.74655949346277    0.41091434277371    0.00472629496227
C        -0.69237349310270    0.41393328278189    0.00879109899640
C        -1.62386438799423    1.44202480963080   -0.00131405210187
C        -2.96532779510711    1.11936519158823   -0.00093766276163
C        -3.37148646751781   -0.21143217298249    0.00657183303211
C        -2.45603994120390   -1.25050506513461    0.01975253426524
C        -1.10883117190509   -0.93249566721451    0.02438277145621
H         0.43087480144868   -5.49762286438978    0.82546672367012
H         1.68213859407593   -5.35899505223411   -1.96310124186212
H        -0.04819959402413   -5.46710490723075   -1.59302081755233
H         1.01977653145296   -6.82145613191885   -1.21422131472654
H         3.36125166437067   -5.19711393864739   -0.02305407577886
H         2.64766295667927   -6.64090607546057    0.70675926353062
H         2.76141880441704   -5.14475454698225    1.64107988871401
H         2.85494537522786   -2.26872806862161    0.01722867899916
H         4.47825410533517   -0.44238481636215   -0.01025755904850
H         3.75636145019983    1.90794286426079   -0.02123641131875
H         1.34963415385617    2.46846119529327   -0.01636877618283
H        -1.30165386595153    2.47146295690323   -0.01058598356837
H        -3.70519619575397    1.90563328944363   -0.00858347436384
H        -4.42536167903449   -0.44485527701039    0.00175520465810
H        -2.79231063634511   -2.27309037115140    0.02669673502548
34
 energy: -53.054800756915 gnorm: 0.004195991742 xtb: 6.4.1 (1a32961)
N         0.02769723941786   -1.76769009483300    0.03687086947206
C        -0.03506809693680   -3.14037978927125    0.08719609746049
O        -1.07671718605589   -3.75542286987219    0.14059755163352
O         1.16774578617738   -3.71321677724917    0.08383903580036
C         1.21106843285375   -5.15912764285284    0.12781787937408
C         0.94656309416779   -5.73416294633270   -1.25939556100945
C         2.58616672635418   -5.54790214941079    0.65409869098645
C         1.16345984573529   -0.93920776428417    0.01852049415849
C         2.51093868397312   -1.25450921520609    0.01270381787406
C         3.42588071859804   -0.21391364013779   -0.00308346446527
C         3.02065626291332    1.11601169624983   -0.01218433196983
C         1.67738999892643    1.43836592772273   -0.00889961614090
C         0.74855001942155    0.40910356035846    0.00540271344607
C        -0.69148774855666    0.41206532884258    0.00948743756530
C        -1.62241008425586    1.43980674732802   -0.00200237554246
C        -2.96482995930270    1.11381968978644   -0.00128773370714
C        -3.36937955778247   -0.21683244986241    0.00851834248494
C        -2.45297775368880   -1.25601829044488    0.02289608075210
C        -1.10723559884663   -0.93403749699529    0.02622326181685
H         0.42526424076279   -5.49091890612656    0.81943643832054
H         1.68074927335515   -5.35552007100243   -1.96648124327548
H        -0.04963105631081   -5.45818681069055   -1.59658943684681
H         1.01403394539777   -6.81688604464392   -1.21807111864253
H         3.35686302653049   -5.18803145037978   -0.02176162691300
H         2.64783262979837   -6.62989711698798    0.71859885802770
H         2.75317923510892   -5.12405747274221    1.64047741523643
H         2.85136685920826   -2.27471401820260    0.02042535633162
H         4.47956893824514   -0.44695666359809   -0.00865395491411
H         3.76155939733761    1.90070297314060   -0.02293837507728
H         1.35029619198394    2.46629782141114   -0.01755998679303
H        -1.29916637892455    2.46901281729472   -0.01233577423977
H        -3.70747731897300    1.89711164188569   -0.00990482534125
H        -4.42289103006190   -0.45107550718860    0.00457545732738
H        -2.78438877657108   -2.28038301570496    0.03109362680988
34
 energy: -53.054854512577 gnorm: 0.002166444754 xtb: 6.4.1 (1a32961)
N         0.02777504442500   -1.76764842792280    0.03806734554893
C        -0.03586321370923   -3.13803733630433    0.08955751098338
O        -1.07668177142609   -3.75720154312076    0.14601472384273
O         1.16665586974032   -3.71169963386958    0.07650245350069
C         1.20832586160985   -5.15719898005034    0.12326507096133
C         0.94609579032794   -5.73094966691948   -1.26481507590190
C         2.58211476085691   -5.53813756482233    0.65623087424211
C         1.16442927152667   -0.94067418361941    0.01919141289129
C         2.51222137813947   -1.25877837048888    0.01481748989309
C         3.42852694154244   -0.21837405357033   -0.00158018731845
C         3.02443889564649    1.11104359380861   -0.01285676441668
C         1.68047410236495    1.43576721446250   -0.01002242527544
C         0.75024445402306    0.40708267933484    0.00516881320888
C        -0.69057468421260    0.41072425584493    0.00949615988623
C        -1.62257411952476    1.43788544674022   -0.00306464025726
C        -2.96577935354970    1.10891333215293   -0.00136958620710
C        -3.36922829548069   -0.22119710778113    0.01108726704236
C        -2.45150160536184   -1.26016162356483    0.02595361160501
C        -1.10636117909367   -0.93433238632437    0.02735689784455
H         0.42002179539049   -5.48690472835609    0.81225457291884
H         1.68196248351187   -5.35307515722442   -1.97070571554111
H        -0.04848994090112   -5.44938060605059   -1.60278161021209
H         1.00883918311232   -6.81416041308593   -1.22554729554834
H         3.35336973286238   -5.18067052344466   -0.02070181951635
H         2.64982050365919   -6.61901513565194    0.73445003779143
H         2.74312977668796   -5.10010719129104    1.63798845362638
H         2.84952341851860   -2.27996609041703    0.02462335075133
H         4.48228985892151   -0.45224159192415   -0.00575467589261
H         3.76782020595161    1.89351112415339   -0.02507049520870
H         1.35387204960653    2.46396174960762   -0.01957438435981
H        -1.29963373454858    2.46724999908167   -0.01514928918628
H        -3.71095055287279    1.88978098936047   -0.01163210015565
H        -4.42266098588157   -0.45664017600544    0.00905466987698
H        -2.77848194186296   -2.28611789273733    0.03717534858222
34
 energy: -53.054867732710 gnorm: 0.001894234977 xtb: 6.4.1 (1a32961)
N         0.02694696210087   -1.76749083093047    0.03879078818253
C        -0.03716771484902   -3.13782660303390    0.08840554993530
O        -1.07733247619302   -3.75750146185236    0.15032187881409
O         1.16558022917684   -3.71193383558090    0.07180576583586
C         1.20762940648346   -5.15702071908643    0.12075151287181
C         0.94806406558141   -5.73090574239545   -1.26768957471964
C         2.58061788685259   -5.53477605149678    0.65749786758975
C         1.16430305023552   -0.94121440212447    0.01968552438435
C         2.51211641067845   -1.26023258761835    0.01585909789077
C         3.42914209884186   -0.22048670882435   -0.00088816122243
C         3.02567978323319    1.10897782317424   -0.01337240301006
C         1.68195798847670    1.43452814274035   -0.01095518529795
C         0.75054849402685    0.40652081956384    0.00499976648333
C        -0.69039377783752    0.41092253206682    0.00969998394348
C        -1.62327067062074    1.43768738687552   -0.00369551978859
C        -2.96634319073819    1.10813303654605   -0.00124730622761
C        -3.36986953481305   -0.22177860290211    0.01297649987960
C        -2.45178353286325   -1.26040111819262    0.02861727584741
C        -1.10665148993118   -0.93368151417046    0.02901181743292
H         0.41816619750032   -5.48688934624861    0.80815809541320
H         1.68569686101566   -5.35374697783419   -1.97227853020314
H        -0.04536761262122   -5.44728085236581   -1.60778925354796
H         1.00860363113494   -6.81428602414241   -1.22928522281412
H         3.35287643189288   -5.18047893885504   -0.02021085333877
H         2.65029944936851   -6.61491279796180    0.74341527259926
H         2.73936958219720   -5.08966224674860    1.63657876141940
H         2.84881691689800   -2.28154360463759    0.02646316247508
H         4.48287061503452   -0.45518076433337   -0.00422952759632
H         3.76972311104395    1.89093252656605   -0.02602962930492
H         1.35652822680361    2.46307068915458   -0.02119583412160
H        -1.30125231792236    2.46729511783235   -0.01697917799419
H        -3.71190342738533    1.88871086994274   -0.01210950861805
H        -4.42331998164369   -0.45771255048185    0.01186156988205
H        -2.77771167115879   -2.28658466264467    0.04068549692518
34
 energy: -53.054886069611 gnorm: 0.001841213294 xtb: 6.4.1 (1a32961)
N         0.02390515032071   -1.76728969035408    0.04271466201302
C        -0.04135272077038   -3.13791093184515    0.09161807681173
O        -1.07989040320902   -3.75785091920340    0.16304962979396
O         1.16204995933499   -3.71260613691374    0.06071535301982
C         1.20692125673853   -5.15666820686717    0.11291509954991
C         0.95629303914471   -5.73216885078200   -1.27635001015235
C         2.57744138985721   -5.52739561108514    0.66037745517720
C         1.16288403385201   -0.94261622973451    0.02066422153889
C         2.51029429131980   -1.26368902270909    0.01871883792725
C         3.42923075914259   -0.22612047104019    0.00094570427074
C         3.02757938606144    1.10398103813105   -0.01487272023118
C         1.68488724944437    1.43149583523165   -0.01401146664029
C         0.75055583482110    0.40553181982442    0.00353573534962
C        -0.69040243663564    0.41213901749513    0.00941942644446
C        -1.62492892048736    1.43813278543443   -0.00570923515320
C        -2.96736755436762    1.10832275793487   -0.00052641710840
C        -3.37183197383919   -0.22133682126215    0.01830381096728
C        -2.45344271368444   -1.25918601792371    0.03531494199999
C        -1.10821510179560   -0.93170918433229    0.03260870293689
H         0.41449092948048   -5.48835188831616    0.79591610673428
H         1.70008744542366   -5.35765891752690   -1.97614704327926
H        -0.03379333728300   -5.44495945626971   -1.62416055375461
H         1.01218668649004   -6.81580079073536   -1.23820557992502
H         3.35307898418046   -5.18423464747324   -0.01968232663928
H         2.64838211415029   -6.60563693911965    0.76598242076624
H         2.73147753788864   -5.06505630731666    1.63243591560546
H         2.84595306174586   -2.28519727687519    0.03165711412635
H         4.48260112714402   -0.46324575424784   -0.00030574731433
H         3.77273735143741    1.88504586234347   -0.02869523195403
H         1.36285469687733    2.46103967916723   -0.02641174379991
H        -1.30523974385968    2.46835859281016   -0.02256711988076
H        -3.71279277726350    1.88919819648479   -0.01288241120465
H        -4.42529899786287   -0.45787941701145    0.02003621842226
H        -2.77816560379740   -2.28542609591248    0.05122817358191
34
 energy: -53.054896437899 gnorm: 0.001319326546 xtb: 6.4.1 (1a32961)
N         0.02230830904089   -1.76754966861468    0.04410150214872
C        -0.04317681602164   -3.13849314471384    0.09223573517256
O        -1.08156247530505   -3.75766062591667    0.16854639526200
O         1.16016152820902   -3.71243191258789    0.05727599062576
C         1.20738980062859   -5.15635847652617    0.11023434437407
C         0.96243571375173   -5.73360904319271   -1.27938888658360
C         2.57678751146113   -5.52694745677261    0.66118178541305
C         1.16138659641475   -0.94311011652869    0.02077878689187
C         2.50843722944381   -1.26446897232182    0.01936433484534
C         3.42788148926677   -0.22756307537283    0.00100752190855
C         3.02683240112066    1.10296187647857   -0.01570165399812
C         1.68438570557619    1.43086640120984   -0.01537332219833
C         0.74974613354536    0.40546770318973    0.00278111825499
C        -0.69098738942356    0.41269705922155    0.00935778350687
C        -1.62477465110227    1.43913022084651   -0.00623935463670
C        -2.96725570078125    1.11055660795483    0.00022469879327
C        -3.37263266060099   -0.21912788964290    0.02056511066730
C        -2.45488388221170   -1.25731873113460    0.03819228550558
C        -1.10947293814828   -0.93126782942667    0.03432588188753
H         0.41331885988589   -5.48907534662017    0.79117494291174
H         1.70937352472078   -5.36072955462846   -1.97653693577010
H        -0.02615748598026   -5.44735533213815   -1.63186102741532
H         1.01835768905598   -6.81710631918893   -1.23855000569307
H         3.35415164248454   -5.18951906159146   -0.01951389166887
H         2.64393933029197   -6.60472655166901    0.77167628118401
H         2.73069326844289   -5.06091854530542    1.63106069873396
H         2.84403810688150   -2.28602664383266    0.03312747235075
H         4.48095676853478   -0.46524717988376    0.00025916158460
H         3.77191334433337    1.88397753050812   -0.02967811963574
H         1.36291270384044    2.46058977544567   -0.02866149834745
H        -1.30470524637610    2.46925690687155   -0.02458192373333
H        -3.71169687048013    1.89232729036067   -0.01231598343972
H        -4.42614720004609   -0.45476612645277    0.02314202573396
H        -2.78078434045377   -2.28320376802422    0.05541874536386
34
 energy: -53.054904314852 gnorm: 0.000714035038 xtb: 6.4.1 (1a32961)
N         0.02009351492363   -1.76799978957780    0.04654445431287
C        -0.04542092413444   -3.13905818692039    0.09585124908826
O        -1.08393870020438   -3.75761567393804    0.17683150338408
O         1.15744681668028   -3.71207448674156    0.05169314578958
C         1.20772412461746   -5.15594605455395    0.10529771067980
C         0.97188271390438   -5.73541613246349   -1.28509714535108
C         2.57480055621869   -5.52580613457897    0.66341568246803
C         1.15926123732271   -0.94414679394879    0.02079489828828
C         2.50610100910073   -1.26599188791488    0.02027440414597
C         3.42610734403231   -0.22946755385494    0.00093618596947
C         3.02584034774207    1.10126720370843   -0.01745442515191
C         1.68330339318099    1.42978283434286   -0.01775947580838
C         0.74858641616370    0.40479200135266    0.00136382148953
C        -0.69196341797263    0.41272367792146    0.00914919265287
C        -1.62398076552772    1.44038119838190   -0.00697575806590
C        -2.96710887739665    1.11364630952364    0.00154313769019
C        -3.37370442021362   -0.21573750324696    0.02441840272649
C        -2.45711543905423   -1.25510977163080    0.04257126945368
C        -1.11134563218277   -0.93118263692761    0.03653648586550
H         0.41054341981201   -5.48940030472086    0.78234299076030
H         1.72406236564107   -5.36441252791185   -1.97732201461675
H        -0.01410625693497   -5.45046757998394   -1.64558280831227
H         1.02828902805027   -6.81874975707393   -1.24025781113049
H         3.35488146568947   -5.19718100728624   -0.01820892938187
H         2.63642920340975   -6.60311811483186    0.78218696143914
H         2.72807174658627   -5.05277092646370    1.62999169879344
H         2.84130597999833   -2.28770765470514    0.03545506906479
H         4.47893585594040   -0.46755231191307    0.00077181720203
H         3.77115224237095    1.88190993028961   -0.03206253175720
H         1.36177971799954    2.45952011481585   -0.03209950262003
H        -1.30208320777250    2.46998008489163   -0.02741949778826
H        -3.71043408533815    1.89638845070993   -0.01129919569360
H        -4.42748012653220   -0.44960969261843    0.02873934789596
H        -2.78474664612080   -2.28061932213087    0.06245966651752
34
 energy: -53.054906151818 gnorm: 0.000346878377 xtb: 6.4.1 (1a32961)
N         0.01959564442884   -1.76808954876164    0.04667055903088
C        -0.04580615127582   -3.13925682767018    0.09495381889146
O        -1.08448226303781   -3.75745863638858    0.17874053266988
O         1.15668947437193   -3.71235160731177    0.04939576402643
C         1.20720780415900   -5.15628543629381    0.10400105377497
C         0.97552538342175   -5.73598775428224   -1.28696987921903
C         2.57312086740404   -5.52596608636341    0.66507393610890
C         1.15886273696100   -0.94444795336742    0.02076199639783
C         2.50578651715103   -1.26623633885056    0.02001252148286
C         3.42562821735572   -0.22948867790032    0.00020477484268
C         3.02540294236250    1.10112731878856   -0.01853295322818
C         1.68280938595904    1.42961945652157   -0.01855629018998
C         0.74831330123220    0.40446235511838    0.00119891488569
C        -0.69228342063613    0.41248295436571    0.00957670511728
C        -1.62359394778978    1.44071230371941   -0.00667846122473
C        -2.96696053264454    1.11453367746303    0.00246643567295
C        -3.37383529411675   -0.21460699499620    0.02609250922019
C        -2.45778491645965   -1.25459678944051    0.04433012020701
C        -1.11185974431595   -0.93129834468954    0.03764639152030
H         0.40834699167282   -5.48963049324522    0.77901064051282
H         1.72931164417981   -5.36468320165396   -1.97725884932811
H        -0.00953769707637   -5.45151398538361   -1.65020507432545
H         1.03226203840844   -6.81928043455764   -1.24192135039860
H         3.35477273997911   -5.19965324743940   -0.01578298752993
H         2.63377685092315   -6.60299484861288    0.78651169398351
H         2.72528190942402   -5.05099836620706    1.63086508683433
H         2.84106058436894   -2.28789819730292    0.03550777870751
H         4.47853272868266   -0.46746579107968    0.00009269123749
H         3.77079160042454    1.88170644232852   -0.03364245701290
H         1.36090899481829    2.45921412981158   -0.03323345772775
H        -1.30072411007125    2.46995931308302   -0.02777586097650
H        -3.71009254085342    1.89745068999356   -0.01055408465035
H        -4.42778403114357   -0.44793345624448    0.03099835003155
H        -2.78607370826784   -2.27989562315041    0.06462943065500
34
 energy: -53.054907487941 gnorm: 0.000297906970 xtb: 6.4.1 (1a32961)
N         0.01971673423220   -1.76813266659661    0.04654156167982
C        -0.04555934463748   -3.13933059038653    0.09478348986800
O        -1.08438785998615   -3.75730613390294    0.17838535625731
O         1.15665597152655   -3.71274758827234    0.04880659384037
C         1.20670685680149   -5.15683660563394    0.10346550031462
C         0.97731466958709   -5.73594655780127   -1.28805643690532
C         2.57143702986881   -5.52673570931567    0.66696077687425
C         1.15899165123697   -0.94447283432116    0.02050174188315
C         2.50601299824410   -1.26603353275561    0.01933093584119
C         3.42549496569298   -0.22893639439686   -0.00079636092109
C         3.02507519094509    1.10157168141652   -0.01957855140640
C         1.68243727585115    1.42983296814494   -0.01908787935742
C         0.74831220006089    0.40434474731795    0.00111199036685
C        -0.69234874873804    0.41223363426530    0.00991908106287
C        -1.62331390869893    1.44076481052611   -0.00611496914374
C        -2.96673947478105    1.11473283570761    0.00326615162672
C        -3.37359913304417   -0.21430693499429    0.02708484899597
C        -2.45783497231541   -1.25462847469991    0.04503771088501
C        -1.11184992878317   -0.93150301558691    0.03798039726954
H         0.40656726684450   -5.48994678014357    0.77689272954092
H         1.73173637294642   -5.36347927536951   -1.97700995570027
H        -0.00742501207484   -5.45196919721093   -1.65253405336862
H         1.03481738902469   -6.81922838938794   -1.24386913730066
H         3.35432727861058   -5.20056766075195   -0.01250132672035
H         2.63191442979978   -6.60365124402191    0.78870666598676
H         2.72207275563793   -5.05175721400739    1.63295094750596
H         2.84149304668858   -2.28762169865705    0.03475740188575
H         4.47851165873027   -0.46664670589256   -0.00130231786498
H         3.77041797440416    1.88221783456706   -0.03514615147887
H         1.36006911524319    2.45925607996324   -0.03369645895765
H        -1.29986317776329    2.46978114618304   -0.02722267805462
H        -3.70991693438052    1.89761563132721   -0.00960668838574
H        -4.42762550872327   -0.44752341329674    0.03230882574046
H        -2.78644882805116   -2.27979275201549    0.06536025814022
34
 energy: -53.054909128617 gnorm: 0.000374888661 xtb: 6.4.1 (1a32961)
N         0.02009923802055   -1.76812274475227    0.04622202995169
C        -0.04519956612969   -3.13934536004385    0.09440498024436
O        -1.08423609649078   -3.75717977905204    0.17721562404278
O         1.15687381083141   -3.71314834724815    0.04857622297478
C         1.20595196233676   -5.15744520751275    0.10295032727623
C         0.97948574003460   -5.73535029876888   -1.28950371056656
C         2.56890810618769   -5.52797512166977    0.66997588676694
C         1.15933897136714   -0.94434193348277    0.01989843769819
C         2.50646977770863   -1.26564894575864    0.01801993044437
C         3.42560607950172   -0.22823426558725   -0.00257387668546
C         3.02490991441115    1.10220625059368   -0.02111234665653
C         1.68222354744195    1.43018281242990   -0.01982076567519
C         0.74843029313522    0.40435224337524    0.00089858982971
C        -0.69225038435849    0.41205273228805    0.01034987269465
C        -1.62317000273902    1.44068984358839   -0.00510919884203
C        -2.96656254908636    1.11457648012926    0.00464360522621
C        -3.37327628453859   -0.21447508566689    0.02833030730215
C        -2.45757507378591   -1.25488706275671    0.04570088855155
C        -1.11156750660895   -0.93166251681562    0.03820737047566
H         0.40389583461848   -5.49021902434268    0.77414601012864
H         1.73445771749981   -5.36095069756783   -1.97685207244672
H        -0.00509476911075   -5.45213158064048   -1.65515946492295
H         1.03829457536866   -6.81866053791016   -1.24679308355626
H         3.35376080007509   -5.20127645100094   -0.00712072393950
H         2.62913764387033   -6.60500792921407    0.79135735539455
H         2.71669698712133   -5.05344010882277    1.63672428376346
H         2.84217872524613   -2.28718823163915    0.03325196543021
H         4.47873089737912   -0.46562651200234   -0.00367563733980
H         3.77015362765038    1.88296252467807   -0.03725510876265
H         1.35943358880608    2.45946847547381   -0.03421395428134
H        -1.29946386442097    2.46960823199872   -0.02608365385931
H        -3.70989871506152    1.89732820518374   -0.00793919720701
H        -4.42730144595311   -0.44785184762053    0.03393595177191
H        -2.78627158032817   -2.28000820986241    0.06603315477328
34
 energy: -53.054910745992 gnorm: 0.000365393705 xtb: 6.4.1 (1a32961)
N         0.02054681362582   -1.76803107530617    0.04576141779500
C        -0.04489012459815   -3.13922699304985    0.09377530997319
O        -1.08410304901441   -3.75690328062729    0.17508583989213
O         1.15710610332732   -3.71335490368762    0.04926222796405
C         1.20513582005841   -5.15784352598679    0.10274900732715
C         0.98197226265231   -5.73424286145314   -1.29085592441375
C         2.56610846480388   -5.52969454918155    0.67353920545527
C         1.15967809638750   -0.94407544524350    0.01906965155624
C         2.50687036480605   -1.26516534103361    0.01625308534088
C         3.42580607547382   -0.22758884323149   -0.00482690369016
C         3.02486452215333    1.10281905116594   -0.02296778407920
C         1.68213983542824    1.43055630688275   -0.02072808120088
C         0.74853692847717    0.40454273867272    0.00050673367551
C        -0.69212007280670    0.41205643414574    0.01072708605036
C        -1.62322413331945    1.44057548098861   -0.00390945139511
C        -2.96653864613612    1.11428603150450    0.00623175214440
C        -3.37305649718168   -0.21485534798233    0.02965273153399
C        -2.45719939576634   -1.25510920320708    0.04631075033836
C        -1.11122148545778   -0.93169971202249    0.03834635234030
H         0.40093368515255   -5.49053038392740    0.77138405934925
H         1.73747770847129   -5.35758253228816   -1.97638611610935
H        -0.00245105880788   -5.45209538896340   -1.65779823692617
H         1.04252753954841   -6.81753222454634   -1.24968073321717
H         3.35327392105394   -5.20195276565631   -0.00036821080886
H         2.62574542696733   -6.60693489566155    0.79314662149513