99
 energy: -143.633080193470 gnorm: 0.076177387496 xtb: 6.4.0 (f63f532)
N        -0.96510000000000   -2.11530000000000   -0.24090000000000
C        -2.24700000000000   -1.69840000000000   -0.36220000000000
C        -3.14040000000000   -2.36820000000000   -1.21200000000000
C        -2.70220000000000   -3.47560000000000   -1.93050000000000
C        -1.37780000000000   -3.89880000000000   -1.78760000000000
C        -0.54290000000000   -3.18670000000000   -0.93510000000000
H         0.49810000000000   -3.45630000000000   -0.78940000000000
H        -0.99570000000000   -4.76030000000000   -2.32770000000000
H        -4.16500000000000   -2.02890000000000   -1.31830000000000
C        -2.62130000000000   -0.50950000000000    0.44100000000000
N        -1.62600000000000    0.07330000000000    1.16020000000000
C        -1.89680000000000    1.15240000000000    1.91690000000000
C        -3.17230000000000    1.70330000000000    1.99650000000000
C        -4.20510000000000    1.11740000000000    1.26270000000000
C        -3.92610000000000    0.00250000000000    0.47820000000000
H        -4.71960000000000   -0.46420000000000   -0.09520000000000
H        -3.34630000000000    2.57510000000000    2.62070000000000
H        -1.04450000000000    1.57420000000000    2.43690000000000
Ir        0.42150000000000   -0.81650000000000    0.91330000000000
H         0.87260000000000   -2.23030000000000    1.54050000000000
B         0.50670000000000    0.41560000000000   -0.81540000000000
O         0.19500000000000   -0.04700000000000   -2.09150000000000
C         0.00650000000000    1.10040000000000   -2.95430000000000
C         0.49020000000000    0.74740000000000   -4.35780000000000
H         1.51610000000000    0.37380000000000   -4.33700000000000
H         0.44730000000000    1.62240000000000   -5.01670000000000
H        -0.14740000000000   -0.03390000000000   -4.78430000000000
C        -1.50120000000000    1.39560000000000   -2.96670000000000
H        -1.75370000000000    2.21460000000000   -3.64850000000000
H        -2.03200000000000    0.49450000000000   -3.28930000000000
H        -1.85170000000000    1.65210000000000   -1.96220000000000
C         0.84230000000000    2.20670000000000   -2.22040000000000
O         0.75200000000000    1.78260000000000   -0.83690000000000
C         2.32930000000000    2.18620000000000   -2.59900000000000
H         2.74130000000000    1.18500000000000   -2.45750000000000
H         2.48870000000000    2.51300000000000   -3.63180000000000
H         2.87200000000000    2.86270000000000   -1.93200000000000
C         0.28440000000000    3.62290000000000   -2.33660000000000
H        -0.72650000000000    3.69040000000000   -1.92910000000000
H         0.92130000000000    4.31480000000000   -1.77610000000000
H         0.26430000000000    3.94810000000000   -3.38320000000000
B         1.56300000000000    0.60960000000000    1.84840000000000
O         2.92780000000000    0.55230000000000    2.15020000000000
C         3.36330000000000    1.88660000000000    2.50260000000000
C         4.53140000000000    1.78590000000000    3.47740000000000
H         4.27910000000000    1.16090000000000    4.33690000000000
H         5.39390000000000    1.33790000000000    2.97340000000000
H         4.82390000000000    2.77870000000000    3.83820000000000
C         3.79700000000000    2.56850000000000    1.19670000000000
H         4.20020000000000    3.57090000000000    1.37680000000000
H         4.56740000000000    1.95560000000000    0.72110000000000
H         2.95240000000000    2.63260000000000    0.50540000000000
C         2.05040000000000    2.50090000000000    3.09320000000000
O         1.03750000000000    1.81620000000000    2.31910000000000
C         1.89100000000000    4.00450000000000    2.88650000000000
H         1.87290000000000    4.25440000000000    1.82410000000000
H         0.94940000000000    4.34260000000000    3.33170000000000
H         2.71080000000000    4.55150000000000    3.36630000000000
C         1.82470000000000    2.13200000000000    4.56520000000000
H         1.92610000000000    1.05330000000000    4.71320000000000
H         2.52610000000000    2.65280000000000    5.22540000000000
H         0.80630000000000    2.41580000000000    4.84900000000000
B         2.27820000000000   -1.33090000000000    0.17410000000000
O         2.89460000000000   -2.57740000000000    0.38450000000000
C         4.26930000000000   -2.48200000000000   -0.07210000000000
C         5.10900000000000   -2.05380000000000    1.14010000000000
H         4.76350000000000   -1.08740000000000    1.51750000000000
H         4.98050000000000   -2.79470000000000    1.93590000000000
H         6.17420000000000   -1.99290000000000    0.89300000000000
C         4.71950000000000   -3.84660000000000   -0.58470000000000
H         4.75280000000000   -4.56130000000000    0.24420000000000
H         5.72330000000000   -3.78370000000000   -1.02010000000000
H         4.03500000000000   -4.23600000000000   -1.34170000000000
C         4.16440000000000   -1.36220000000000   -1.16300000000000
O         3.08520000000000   -0.55030000000000   -0.65400000000000
C         5.40720000000000   -0.48870000000000   -1.31550000000000
H         6.27320000000000   -1.09010000000000   -1.61530000000000
H         5.23300000000000    0.26930000000000   -2.08590000000000
H         5.64270000000000    0.02650000000000   -0.38240000000000
C         3.71800000000000   -1.89830000000000   -2.53110000000000
H         2.82530000000000   -2.52160000000000   -2.42740000000000
H         3.46090000000000   -1.05250000000000   -3.17550000000000
H         4.50570000000000   -2.48290000000000   -3.01790000000000
H        -3.38500000000000   -4.00130000000000   -2.59310000000000
H        -5.21400000000000    1.52080000000000    1.29960000000000
C         0.23590000000000   -1.68140000000000    2.96030000000000
C        -1.00159315219509   -2.10618699920517    3.45488252112020
C         1.29333100980634   -1.83246257668474    3.87022369115862
C        -1.19244473662367   -2.54882548232087    4.76421446445872
H        -1.85256046618516   -2.14492470195659    2.78460161373391
C         1.12203614951653   -2.14752305247256    5.21154413413234
Cl        2.94591862631128   -1.81343604989653    3.37945417202833
C        -0.13182013316208   -2.50887787896417    5.66541960746353
C        -2.47412789681749   -3.18501505213321    5.21248376487696
H         1.98954473286844   -2.19357221432232    5.85600047328543
H        -0.26177712773562   -2.82867889953133    6.69130878436096
H        -2.36309168236365   -4.27064559261120    5.15577344588903
H        -3.31623246169336   -2.89044790358718    4.58836321135929
H        -2.68324194440939   -2.92983504779011    6.25158880437700
99
 energy: -143.640731242700 gnorm: 0.047309097141 xtb: 6.4.0 (f63f532)
N        -0.96137773966562   -2.10144514194727   -0.25011203997689
C        -2.23931827613254   -1.69091966329589   -0.36309999175569
C        -3.13412826116490   -2.36259671102454   -1.20503051277927
C        -2.70382944529402   -3.46408426347458   -1.92100015364455
C        -1.38389571813578   -3.88291161110046   -1.78223255495208
C        -0.55364645872188   -3.16863048212024   -0.94023121106541
H         0.48029571342153   -3.44877967087746   -0.79110554424570
H        -1.00737264219775   -4.74281949980904   -2.31764669358553
H        -4.15471986402263   -2.02726307570555   -1.30890293012590
C        -2.61095973266275   -0.51358008615085    0.43688948085137
N        -1.61903290279647    0.06701991778490    1.14823481545571
C        -1.89749451473515    1.13786549507559    1.89554418161131
C        -3.16470006636544    1.68670646836249    1.98416519037193
C        -4.19582515791781    1.10238054559345    1.25754970885465
C        -3.91424607150079   -0.00419424286937    0.47714517785556
H        -4.70568502971898   -0.46776900521427   -0.09162194231469
H        -3.33956422613819    2.54992010782840    2.61092561472562
H        -1.05462559697280    1.55617593931855    2.42495688063415
Ir        0.42150000000000   -0.81650000000000    0.91330000000000
H         0.87260000000000   -2.23030000000000    1.54050000000000
B         0.49488180845259    0.42277234345887   -0.79012110379124
O         0.17601178003879   -0.03600442260828   -2.06195346747333
C         0.00971569805516    1.09601329892471   -2.94234211096619
C         0.48806766683987    0.74728876129604   -4.34786915417474
H         1.50730735793793    0.37107134740908   -4.32753497946609
H         0.44266587018177    1.62293471400066   -4.99610550036084
H        -0.15051154641624   -0.02875538804515   -4.76855171099643
C        -1.49465283116224    1.39811752598471   -2.96812534489842
H        -1.73348833230186    2.21116401267656   -3.65207155183662
H        -2.02473260525358    0.50106888590252   -3.28833133506635
H        -1.84138387287456    1.65306824262765   -1.96648271473304
C         0.83124284271198    2.20650455325366   -2.21171930477139
O         0.75581270099722    1.77940894123238   -0.83450795126049
C         2.31367511541242    2.19122999953478   -2.60016669042621
H         2.71913488559301    1.19240136404259   -2.45104522041626
H         2.46498144458720    2.51294370260193   -3.62988981310786
H         2.85627489783114    2.86593142452857   -1.93886501688555
C         0.27909978704805    3.62249331904289   -2.33850718791393
H        -0.72422441387757    3.69132724023127   -1.92615903341315
H         0.91858453711586    4.30651837881611   -1.78199647551116
H         0.26128115736971    3.93513992459797   -3.38270308395986
B         1.56140075854704    0.63385762683796    1.84120902826786
O         2.92463334796925    0.59336363127384    2.10664394419173
C         3.36255355656027    1.90492748977696    2.50219272610703
C         4.53087187826228    1.79383901619801    3.47460374793641
H         4.27721834186411    1.15980735604691    4.32058142312447
H         5.38545377861228    1.34813330460194    2.96702872374704
H         4.81688890149972    2.78087506029785    3.83711306203887
C         3.80086943618415    2.58933653123509    1.20467893973101
H         4.20419200990688    3.58345209641811    1.38939553583754
H         4.56374196617261    1.97332478678313    0.73050397347968
H         2.95258333384257    2.63998291669079    0.52311573929063
C         2.05047087587432    2.51206350762335    3.08840890834986
O         1.03495510455043    1.81958905065997    2.33514874645628
C         1.89144481398969    4.01342787835698    2.89075045199184
H         1.86626838750768    4.25678410724762    1.83226334761252
H         0.95404211341578    4.34102401608899    3.33825971667188
H         2.71329910185370    4.54749364911849    3.36684892999169
C         1.83250062984171    2.14073222693059    4.55978181764940
H         1.93773971700768    1.06490766566520    4.69644556860892
H         2.53377319359669    2.66085201487398    5.20965089498033
H         0.81771678178796    2.41585901680640    4.84701943673967
B         2.27819999999999   -1.33090000000001    0.17410000000000
O         2.90227915152936   -2.56307110754676    0.38064727811503
C         4.26779961481112   -2.48336948259388   -0.08560146773368
C         5.12545892714784   -2.05988154461145    1.11158973780204
H         4.77876024957138   -1.09726167389479    1.48457036816628
H         4.99898110855249   -2.79234967938284    1.90824361734740
H         6.18169296122221   -2.00146532877007    0.85528645695252
C         4.72062988780418   -3.84630169445882   -0.59338483998484
H         4.75065632634719   -4.54826898169178    0.23894523989104
H         5.71850053646382   -3.77474630742732   -1.02515537512799
H         4.03411659882224   -4.23462850160635   -1.34096234750063
C         4.16482015617790   -1.35782498636967   -1.16172394998990
O         3.07311014884451   -0.56177809038180   -0.66228420252317
C         5.40838133154353   -0.48990890425223   -1.31847312369793
H         6.26439680536704   -1.09596607695314   -1.61422632750111
H         5.23039618515120    0.26214893661930   -2.08604534541489
H         5.63686083967135    0.02327772656537   -0.38866031804582
C         3.72685114160843   -1.89730081406178   -2.52913011283499
H         2.83546030969183   -2.51378752824481   -2.41972837922512
H         3.46914197088128   -1.05594505313782   -3.17108363815316
H         4.51723774059540   -2.47440521716194   -3.00630491518966
H        -3.38319876094373   -3.98891331106732   -2.57891614267689
H        -5.19988991812471    1.50346532110730    1.29803857901764
C         0.23590000000002   -1.68140000000000    2.96030000000000
C        -1.00707364997256   -2.10078290810807    3.45020800659373
C         1.28804156658087   -1.83238867613528    3.87883130899641
C        -1.20505617521564   -2.54094623227889    4.75750650088826
H        -1.85468066226152   -2.13683883863049    2.77781906054062
C         1.10480893593151   -2.14707990183280    5.21701519513268
Cl        2.94335096829078   -1.80972624484281    3.39431095599762
C        -0.14938847499252   -2.50388311437050    5.66135357142322
C        -2.49137914685081   -3.17221173176179    5.20113804108600
H         1.96606320333479   -2.19375787312863    5.86605515735760
H        -0.28595373082309   -2.82108388245070    6.68480811550476
H        -2.38518139129096   -4.25747690525492    5.14539256102063
H        -3.32895748147748   -2.87663421577007    4.57577703978075
H        -2.70408795437665   -2.91698177268461    6.23754746821641
99
 energy: -143.643720255900 gnorm: 0.037954185283 xtb: 6.4.0 (f63f532)
N        -0.95315322197250   -2.09513195877550   -0.25609637026119
C        -2.22851574711013   -1.68548156702271   -0.36415682339356
C        -3.12853533686276   -2.35590230514901   -1.20048146096509
C        -2.70686965344862   -3.45434797736069   -1.91733806833240
C        -1.38751278655439   -3.87318034614927   -1.78291870844038
C        -0.55784635060457   -3.15955422660386   -0.94553369184058
H         0.47449986027920   -3.44430387689828   -0.80426459092509
H        -1.01667457397817   -4.73221313091540   -2.31669972356508
H        -4.14769994993098   -2.02197989685881   -1.29622953306707
C        -2.59674357709351   -0.51708098080983    0.43169346662872
N        -1.60804323070504    0.05958066889751    1.14327848648484
C        -1.89356383497346    1.12352637566380    1.88633550590861
C        -3.15641492096647    1.67238855409146    1.97851754763009
C        -4.18752339037449    1.08845632227897    1.25258723331913
C        -3.90110787786480   -0.01113942209571    0.47227027906060
H        -4.69000956271684   -0.47672981064989   -0.09338332754918
H        -3.33210194251324    2.53057316949520    2.60591528986676
H        -1.05681106708548    1.54717467717801    2.41760169586256
Ir        0.42150000000000   -0.81650000000000    0.91330000000000
H         0.87260000000000   -2.23030000000000    1.54050000000000
B         0.49380856086691    0.43286296420956   -0.76684244186168
O         0.15475160772178   -0.02643023679783   -2.03150666475457
C         0.00379544229133    1.09283610840427   -2.92199066466649
C         0.48604242942341    0.74043355068753   -4.32562593030126
H         1.50154566584103    0.36115291381799   -4.30748535839385
H         0.43954656560779    1.61973595610044   -4.96277067901757
H        -0.15638680551936   -0.02927774104340   -4.74476484312387
C        -1.49892641711596    1.40361089331059   -2.96617377266002
H        -1.71951729199099    2.21292157257441   -3.65512354643539
H        -2.02807704355444    0.50904501725811   -3.28726462350333
H        -1.84725673573577    1.66126312850017   -1.96828108129701
C         0.82164609894759    2.20582648218021   -2.19824478319028
O         0.75886196554959    1.78247266598422   -0.82624541414528
C         2.30115311961353    2.19688342741862   -2.59830548692990
H         2.70436777067384    1.19997217093588   -2.44284713619637
H         2.43827682766956    2.51180496508908   -3.62862220923614
H         2.84375881097121    2.87588681560249   -1.94540713838027
C         0.26686428698866    3.62033746471780   -2.33371592891122
H        -0.73195451032780    3.69470172361510   -1.91760571605010
H         0.91151629525171    4.30252508265760   -1.78654151689670
H         0.24970284466093    3.91629270218321   -3.37897983995074
B         1.56072915653896    0.64981737209200    1.84317947580160
O         2.92222838926341    0.62337872680002    2.06749149578912
C         3.35934045829018    1.91936762001791    2.49209880494166
C         4.52420790626490    1.79899240784866    3.46883376369255
H         4.27112398912541    1.15464459949684    4.30406275924952
H         5.37582567320053    1.36106529510362    2.95573906187765
H         4.80227971901559    2.78229849282519    3.83661251343090
C         3.80627824892073    2.62778479471854    1.21026034211701
H         4.20838982618838    3.61672744600852    1.40327245907580
H         4.56681418133561    2.01274958906258    0.73610927894263
H         2.95778442692306    2.67317760920262    0.53208766765982
C         2.05059660359491    2.52111599879282    3.08546360075925
O         1.03421876147852    1.82060708498617    2.35026866834646
C         1.88936152550153    4.02284540202077    2.89262256149935
H         1.85524879773010    4.26651799362717    1.83693514578607
H         0.95758406930724    4.34492948472397    3.34822979416939
H         2.71531851568355    4.54678643437847    3.36395197604769
C         1.84718851949586    2.15200976270763    4.56040025043728
H         1.95793954302007    1.07755876034283    4.68736794372603
H         2.55043436415893    2.67454288735752    5.20003781240282
H         0.83402461089905    2.41923638253151    4.85145324172323
B         2.27819999999998   -1.33090000000002    0.17410000000001
O         2.91021670132212   -2.54873935850582    0.38787663703346
C         4.26343803763471   -2.48001811627882   -0.09598471079689
C         5.14401912722177   -2.06318558699747    1.08651167942075
H         4.80422149308647   -1.10038576380470    1.45948693577606
H         5.02616499939470   -2.79166143803675    1.88445837779643
H         6.19119151448343   -2.01145953715128    0.80720233145237
C         4.71213570729807   -3.84349621573126   -0.60751026194659
H         4.74527406629950   -4.53645435542150    0.22810264464220
H         5.70534677019206   -3.76445803642451   -1.03903689735520
H         4.02413740711916   -4.23481030701988   -1.34814381921035
C         4.15838893102676   -1.35458833656182   -1.16692329965275
O         3.05909355839749   -0.57053137549640   -0.67310818192749
C         5.40238441150952   -0.48710698790649   -1.32119969239033
H         6.25024126361025   -1.10043590812133   -1.61153510515999
H         5.22531845955333    0.25866228794059   -2.09066785703439
H         5.62786921941624    0.02758646797095   -0.39450096424806
C         3.73291960584668   -1.89628654749166   -2.53761386807301
H         2.84349290298908   -2.51061711613015   -2.42515640804574
H         3.47750448083749   -1.05746749278538   -3.17985126890569
H         4.52958876196119   -2.46855868567514   -3.00164567008814
H        -3.38773434965825   -3.97937124812985   -2.56857954453979
H        -5.19024816662712    1.48447182956162    1.29738110373846
C         0.23590000000005   -1.68139999999999    2.96030000000001
C        -1.01420457310422   -2.09531568280421    3.43961125849080
C         1.28059536262448   -1.82729576243542    3.88735870802168
C        -1.22574041127250   -2.52964672795594    4.74523167352145
H        -1.85641483469684   -2.12637842272941    2.76124056743604
C         1.08288307049579   -2.14514347670306    5.22242165237768
Cl        2.93806097035413   -1.76134299672316    3.40583384495596
C        -0.17578809033241   -2.49737621702313    5.65488425994334
C        -2.52202181890171   -3.14854115918917    5.18001526820277
H         1.93587928785427   -2.18895824984172    5.88079059350276
H        -0.32402326572529   -2.80950643316735    6.67734940784159
H        -2.42492997318815   -4.23447387423008    5.12625171727131
H        -3.35167469810855   -2.84742435543131    4.54847013297755
H        -2.74067524436897   -2.89036550477439    6.21355238888054
99
 energy: -143.645650263722 gnorm: 0.036836301740 xtb: 6.4.0 (f63f532)
N        -0.94138990743008   -2.09252917614915   -0.26636785805942
C        -2.21747249709788   -1.68304181607816   -0.36766641993460
C        -3.12387167002604   -2.35328181416850   -1.19845780183050
C        -2.70944216368060   -3.45158734070579   -1.91731870458912
C        -1.38800009456736   -3.87054246103256   -1.79044976148723
C        -0.55378852522975   -3.15596793639203   -0.95863434826867
H         0.47834902003290   -3.44572861624464   -0.82411019266248
H        -1.02213053057972   -4.73011093081764   -2.32485953932017
H        -4.14285630086494   -2.01775339001871   -1.28624735366520
C        -2.58337598440479   -0.51967580901052    0.42771868360251
N        -1.59549847105312    0.05703308140612    1.14030553486943
C        -1.88585807176370    1.11847931049838    1.88272225612864
C        -3.14924778808377    1.66408187832692    1.97824259456802
C        -4.18095606553372    1.07801907889537    1.25188826309182
C        -3.88989925263542   -0.01710181701313    0.46935434771744
H        -4.67599763089234   -0.48459549637426   -0.09779416843089
H        -3.32688117443532    2.51853108632396    2.60828595956172
H        -1.05370682013506    1.54516168687606    2.41904827438351
Ir        0.42150000000000   -0.81650000000000    0.91330000000000
H         0.87260000000000   -2.23030000000001    1.54050000000000
B         0.48364921006609    0.44693035145073   -0.74519851323668
O         0.13018791243180   -0.01766161058025   -2.00381408312808
C        -0.00759669384395    1.09182136935125   -2.90124927041813
C         0.48114643738764    0.73033976858482   -4.30129779264836
H         1.49410517903886    0.34576718758222   -4.27906706802502
H         0.44012617051038    1.61090763778483   -4.93574991807301
H        -0.16486819086733   -0.03564764289500   -4.72053330654928
C        -1.50916470947750    1.41152621735430   -2.96277478148130
H        -1.71352476792419    2.21861164851231   -3.65807345074161
H        -2.03882291870929    0.51852860918637   -3.28583815400754
H        -1.86519553053990    1.67524236946002   -1.96965326838792
C         0.81078095259850    2.20792983107874   -2.18321196434166
O         0.75996280566975    1.79109424806969   -0.81333959028941
C         2.28806712014963    2.20317070710128   -2.59548773880349
H         2.69443231695706    1.20880814002619   -2.43378557274846
H         2.41252445216122    2.50984824567648   -3.62911628344454
H         2.83175313830510    2.89033177376183   -1.95273301228497
C         0.25277102863748    3.62159886633815   -2.32608769698332
H        -0.74317770437482    3.69983711033251   -1.90488635044380
H         0.90180966098208    4.30787400242322   -1.79001408592432
H         0.23051380416648    3.90342914260275   -3.37448149756955
B         1.56135046650091    0.67163245872282    1.82800290818233
O         2.92252516979355    0.65710384969411    2.02077782780387
C         3.35677549117491    1.94015417729951    2.47722921639488
C         4.51940509828445    1.80324516322996    3.45714563946500
H         4.26526553086562    1.14446290024740    4.28052203439548
H         5.37289761531288    1.37620730016462    2.93863019466733
H         4.79123615983503    2.78187801195522    3.84012806711157
C         3.81185839079299    2.67521415280158    1.21113690014545
H         4.20964471806823    3.66077309558269    1.42412576933956
H         4.57709587068643    2.06916573697342    0.73315022888284
H         2.96682930689873    2.72778767166090    0.52991540079808
C         2.04801459016095    2.53080999442779    3.08317180147524
O         1.02860272586252    1.82377278114349    2.36314139677466
C         1.88161599983339    4.03378705742109    2.89526501217841
H         1.83598369588695    4.28128599851576    1.84109644318845
H         0.95550836055775    4.35305228080440    3.36326891038563
H         2.71369016571287    4.55300022721789    3.35951908584445
C         1.86387510830202    2.16298369033764    4.56256319527093
H         1.98252546363355    1.08938326784539    4.68616058779904
H         2.57090761296793    2.69085249740976    5.19222896124774
H         0.85202601672408    2.42378798361126    4.86227102451459
B         2.27819999999996   -1.33090000000004    0.17410000000001
O         2.91818476811345   -2.53822863785965    0.39952281388793
C         4.25998948540239   -2.47633065340069   -0.10516490594522
C         5.16460480607969   -2.06499673918374    1.06289744336468
H         4.83706719999901   -1.09982656992029    1.43992784977501
H         5.05677164452220   -2.79189142029854    1.86301077777366
H         6.20533006039842   -2.02104324221269    0.75979530303748
C         4.70003474455543   -3.84225850318729   -0.62237989814825
H         4.73917189764532   -4.53267556371404    0.21437526977142
H         5.68930471663966   -3.76090330538330   -1.06062748175781
H         4.00656708979797   -4.23398686712014   -1.35706240767109
C         4.14961783469365   -1.35153128952891   -1.17601284478821
O         3.04358142039086   -0.57617524039479   -0.68887998324920
C         5.39246386698180   -0.48025612060120   -1.32746212212529
H         6.23914596546825   -1.09749476184487   -1.61056537535866
H         5.21804605546015    0.26029097264925   -2.10172914615441
H         5.61366927673239    0.03889528977558   -0.40274156651070
C         3.73686756277584   -1.89629926315081   -2.55050650949632
H         2.84873532795905   -2.51217102765487   -2.44229147016514
H         3.48580772728186   -1.05894484144123   -3.19562795120510
H         4.54079216954827   -2.46587223171673   -3.00327576047066
H        -3.39437949334172   -3.97613310081321   -2.56370102446514
H        -5.18473772865169    1.46924880310440    1.29942310478689
C         0.23590000000010   -1.68139999999998    2.96030000000002
C        -1.02213233171176   -2.08949266927591    3.42442078251178
C         1.27014704205902   -1.81729327274810    3.89957330761386
C        -1.25180942445576   -2.51568863902195    4.72897840889569
H        -1.85617329857568   -2.11850820543584    2.73586991452157
C         1.05550269969998   -2.13984904467872    5.23067282803035
Cl        2.93185574309264   -1.72190448256566    3.42967196966615
C        -0.20964554051084   -2.48907161259824    5.64804414309512
C        -2.56123809713614   -3.11664074247014    5.15177731520125
H         1.89940447601992   -2.18312603642158    5.90066112263346
H        -0.37214710432400   -2.79741758420739    6.66961191301545
H        -2.47791163244984   -4.20398653762711    5.10120689845589
H        -3.37970903887803   -2.80585053405788    4.50999198332472
H        -2.78834350218976   -2.85270332268901    6.18198543804242
99
 energy: -143.647672767035 gnorm: 0.036433555795 xtb: 6.4.0 (f63f532)
N        -0.92900227899679   -2.09569054852372   -0.27541634085162
C        -2.20632226195585   -1.68419963568394   -0.37184285715859
C        -3.11776968139454   -2.35342713699113   -1.19963060081905
C        -2.70932523323661   -3.45190136861977   -1.92141866882202
C        -1.38555060910034   -3.87095660793093   -1.80290653924207
C        -0.54591359767525   -3.15738437744338   -0.97420948099702
H         0.48775110451718   -3.44873259630975   -0.84974013974296
H        -1.02369323068726   -4.73045242665373   -2.34076847716483
H        -4.13703881410172   -2.01553536530557   -1.27984263453132
C        -2.57030354579266   -0.52281870581823    0.42441944953822
N        -1.58270735750144    0.05318055226108    1.14139123838191
C        -1.87679754220273    1.11432376189749    1.88519358433201
C        -3.14174050712752    1.65710268878887    1.98089957085502
C        -4.17330522462503    1.07032724249487    1.25174481627902
C        -3.87805324336470   -0.02063045324593    0.46534588100947
H        -4.66148372257054   -0.48939609667698   -0.10516020734074
H        -3.32146651366367    2.50901667679669    2.61400838356406
H        -1.04762186413787    1.54507125647643    2.42396342443687
Ir        0.42149999999999   -0.81649999999999    0.91329999999999
H         0.87260000000000   -2.23030000000001    1.54050000000000
B         0.47710255589792    0.46270630498284   -0.72507640781899
O         0.10013094610437   -0.00617024920328   -1.97563828451981
C        -0.02535632299184    1.09428187176320   -2.87913590199074
C         0.47202542417433    0.71707811895913   -4.27310821731091
H         1.48159407985456    0.32301945042919   -4.23919639605632
H         0.44412604377563    1.59453798143062   -4.91333079209360
H        -0.17789830931737   -0.04646251875893   -4.69184876891173
C        -1.52524961052751    1.42394958386536   -2.95874809757080
H        -1.71416005463336    2.22855166925639   -3.66166493590920
H        -2.05680435121523    0.53236815027166   -3.28358884107948
H        -1.89307841507523    1.69668691487162   -1.97184926907611
C         0.79766691595300    2.21418519904109   -2.16824044841559
O         0.75975161663995    1.80344091404909   -0.79909871624652
C         2.27278343840164    2.21302957465496   -2.59252107465939
H         2.68606864126516    1.22253655406853   -2.42210506276910
H         2.38554783638182    2.50802431720004   -3.63115537157113
H         2.81775537876108    2.91205200011633   -1.96285769699879
C         0.23432471106123    3.62640267418810   -2.31630565063750
H        -0.75814957742402    3.70691116225795   -1.88619316854391
H         0.88774715562022    4.32037171669189   -1.79430721533149
H         0.20060018438849    3.89636997049530   -3.36806143898453
B         1.56029998024504    0.68424117987545    1.82468843842301
O         2.92669546551666    0.69369515225761    1.96709084126618
C         3.35572559596376    1.96567451598458    2.45683315315748
C         4.51721606332267    1.80702054011001    3.43719413640679
H         4.26214896251124    1.12702399886400    4.24397481422264