105
 energy: -149.502413439119 gnorm: 0.074636460035 xtb: 6.4.0 (f63f532)
N        -0.96510000000000   -2.11530000000000   -0.24090000000000
C        -2.24700000000000   -1.69840000000000   -0.36220000000000
C        -3.14040000000000   -2.36820000000000   -1.21200000000000
C        -2.70220000000000   -3.47560000000000   -1.93050000000000
C        -1.37780000000000   -3.89880000000000   -1.78760000000000
C        -0.54290000000000   -3.18670000000000   -0.93510000000000
H         0.49810000000000   -3.45630000000000   -0.78940000000000
H        -0.99570000000000   -4.76030000000000   -2.32770000000000
H        -4.16500000000000   -2.02890000000000   -1.31830000000000
C        -2.62130000000000   -0.50950000000000    0.44100000000000
N        -1.62600000000000    0.07330000000000    1.16020000000000
C        -1.89680000000000    1.15240000000000    1.91690000000000
C        -3.17230000000000    1.70330000000000    1.99650000000000
C        -4.20510000000000    1.11740000000000    1.26270000000000
C        -3.92610000000000    0.00250000000000    0.47820000000000
H        -4.71960000000000   -0.46420000000000   -0.09520000000000
H        -3.34630000000000    2.57510000000000    2.62070000000000
H        -1.04450000000000    1.57420000000000    2.43690000000000
Ir        0.42150000000000   -0.81650000000000    0.91330000000000
H         0.87260000000000   -2.23030000000000    1.54050000000000
B         0.50670000000000    0.41560000000000   -0.81540000000000
O         0.19500000000000   -0.04700000000000   -2.09150000000000
C         0.00650000000000    1.10040000000000   -2.95430000000000
C         0.49020000000000    0.74740000000000   -4.35780000000000
H         1.51610000000000    0.37380000000000   -4.33700000000000
H         0.44730000000000    1.62240000000000   -5.01670000000000
H        -0.14740000000000   -0.03390000000000   -4.78430000000000
C        -1.50120000000000    1.39560000000000   -2.96670000000000
H        -1.75370000000000    2.21460000000000   -3.64850000000000
H        -2.03200000000000    0.49450000000000   -3.28930000000000
H        -1.85170000000000    1.65210000000000   -1.96220000000000
C         0.84230000000000    2.20670000000000   -2.22040000000000
O         0.75200000000000    1.78260000000000   -0.83690000000000
C         2.32930000000000    2.18620000000000   -2.59900000000000
H         2.74130000000000    1.18500000000000   -2.45750000000000
H         2.48870000000000    2.51300000000000   -3.63180000000000
H         2.87200000000000    2.86270000000000   -1.93200000000000
C         0.28440000000000    3.62290000000000   -2.33660000000000
H        -0.72650000000000    3.69040000000000   -1.92910000000000
H         0.92130000000000    4.31480000000000   -1.77610000000000
H         0.26430000000000    3.94810000000000   -3.38320000000000
B         1.56300000000000    0.60960000000000    1.84840000000000
O         2.92780000000000    0.55230000000000    2.15020000000000
C         3.36330000000000    1.88660000000000    2.50260000000000
C         4.53140000000000    1.78590000000000    3.47740000000000
H         4.27910000000000    1.16090000000000    4.33690000000000
H         5.39390000000000    1.33790000000000    2.97340000000000
H         4.82390000000000    2.77870000000000    3.83820000000000
C         3.79700000000000    2.56850000000000    1.19670000000000
H         4.20020000000000    3.57090000000000    1.37680000000000
H         4.56740000000000    1.95560000000000    0.72110000000000
H         2.95240000000000    2.63260000000000    0.50540000000000
C         2.05040000000000    2.50090000000000    3.09320000000000
O         1.03750000000000    1.81620000000000    2.31910000000000
C         1.89100000000000    4.00450000000000    2.88650000000000
H         1.87290000000000    4.25440000000000    1.82410000000000
H         0.94940000000000    4.34260000000000    3.33170000000000
H         2.71080000000000    4.55150000000000    3.36630000000000
C         1.82470000000000    2.13200000000000    4.56520000000000
H         1.92610000000000    1.05330000000000    4.71320000000000
H         2.52610000000000    2.65280000000000    5.22540000000000
H         0.80630000000000    2.41580000000000    4.84900000000000
B         2.27820000000000   -1.33090000000000    0.17410000000000
O         2.89460000000000   -2.57740000000000    0.38450000000000
C         4.26930000000000   -2.48200000000000   -0.07210000000000
C         5.10900000000000   -2.05380000000000    1.14010000000000
H         4.76350000000000   -1.08740000000000    1.51750000000000
H         4.98050000000000   -2.79470000000000    1.93590000000000
H         6.17420000000000   -1.99290000000000    0.89300000000000
C         4.71950000000000   -3.84660000000000   -0.58470000000000
H         4.75280000000000   -4.56130000000000    0.24420000000000
H         5.72330000000000   -3.78370000000000   -1.02010000000000
H         4.03500000000000   -4.23600000000000   -1.34170000000000
C         4.16440000000000   -1.36220000000000   -1.16300000000000
O         3.08520000000000   -0.55030000000000   -0.65400000000000
C         5.40720000000000   -0.48870000000000   -1.31550000000000
H         6.27320000000000   -1.09010000000000   -1.61530000000000
H         5.23300000000000    0.26930000000000   -2.08590000000000
H         5.64270000000000    0.02650000000000   -0.38240000000000
C         3.71800000000000   -1.89830000000000   -2.53110000000000
H         2.82530000000000   -2.52160000000000   -2.42740000000000
H         3.46090000000000   -1.05250000000000   -3.17550000000000
H         4.50570000000000   -2.48290000000000   -3.01790000000000
H        -3.38500000000000   -4.00130000000000   -2.59310000000000
H        -5.21400000000000    1.52080000000000    1.29960000000000
C         0.23590000000000   -1.68140000000000    2.96030000000000
C        -1.00230432963019   -2.15424419263559    3.39558395150429
C         1.29471941603575   -1.72599756375468    3.86762534219322
C        -1.22253170324801   -2.64516268791231    4.68522019457090
H        -1.83559862066482   -2.17067630144369    2.70536608339488
C         1.12237926032391   -2.20529766190069    5.15409738388196
H         2.27926066814198   -1.41482110382501    3.54859127591007
C        -0.12531675247365   -2.67267854594709    5.54852198288363
C        -2.58279631208443   -3.13071215059789    5.15046792967859
H         1.95883872463757   -2.25886425768764    5.84064730255961
Br       -0.25574117187097   -3.41557621668013    7.30435215343894
C        -3.24378694605800   -2.03228024360712    5.98921435309410
C        -3.51195826912202   -3.55805296891806    4.01165914518804
H        -2.42366045300464   -4.00496697511640    5.79225710633783
H        -3.38227461632675   -1.13263180970552    5.38776911523321
H        -2.62914335682177   -1.77711539861541    6.85283248091860
H        -4.21601502148043   -2.36813916081284    6.35131216835661
H        -3.83505312346406   -2.69697538766443    3.42625267566914
H        -4.39996253949501   -4.03355016177232    4.43078681319334
H        -3.01611097477050   -4.27217889992497    3.35324792282914
105
 energy: -149.508816659952 gnorm: 0.045974243385 xtb: 6.4.0 (f63f532)
N        -0.96180886553559   -2.09997945967335   -0.25170109552339
C        -2.23988937043870   -1.68995966899476   -0.36480432164251
C        -3.13473917094227   -2.36139710466866   -1.20674518634179
C        -2.70443789103475   -3.46310870012589   -1.92212132540430
C        -1.38455675888558   -3.88196395132604   -1.78289491759643
C        -0.55412933412171   -3.16740756407656   -0.94130009231398
H         0.47947808066292   -3.44766805769529   -0.79146887702614
H        -1.00827557910578   -4.74211117365400   -2.31795731248698
H        -4.15534690648318   -2.02628844445127   -1.31040420360663
C        -2.61120747731967   -0.51293494498506    0.43526871773953
N        -1.61861510235875    0.06737781678415    1.14644423221618
C        -1.89692686564528    1.13860520057309    1.89343810290951
C        -3.16390393702801    1.68801455588086    1.98136150331368
C        -4.19540615847583    1.10394621593028    1.25485017189160
C        -3.91420551076290   -0.00303048965983    0.47508642682191
H        -4.70579566461941   -0.46676704407209   -0.09321861801581
H        -3.33895508702090    2.55088422169768    2.60856278644020
H        -1.05394943286933    1.55642106079051    2.42297220993176
Ir        0.42150000000000   -0.81650000000000    0.91330000000000
H         0.87260000000000   -2.23030000000000    1.54050000000000
B         0.49180451639815    0.42416122969896   -0.79033294789072
O         0.17525609032559   -0.03512735676886   -2.06227470867125
C         0.01073855255937    1.09663406217447   -2.94313844700612
C         0.48979953865188    0.74712528042458   -4.34804803242449
H         1.50876553226298    0.37039021362925   -4.32691291251263
H         0.44502433872145    1.62262785435842   -4.99641356884433
H        -0.14903655575756   -0.02866817508672   -4.76865931803858
C        -1.49334775798026    1.39921937108396   -2.96970927589757
H        -1.73139467757349    2.21212363960334   -3.65400567171146
H        -2.02345366335101    0.50223768799038   -3.28988605686793
H        -1.84016140017205    1.65440396995020   -1.96821240311093
C         0.83226087527949    2.20675338395991   -2.21205805880547
O         0.75585115638439    1.77999697261335   -0.83484041987197
C         2.31469070117603    2.19066532309210   -2.59976162999396
H         2.71919111514698    1.19162238745546   -2.44997342490215
H         2.46609703944279    2.51206519417819   -3.62952023758548
H         2.85701773946246    2.86557961925101   -1.93858091183077
C         0.28073410699401    3.62282608754245   -2.33933703038796
H        -0.72259573386392    3.69207994217010   -1.92719029140233
H         0.92037636873272    4.30665014518533   -1.78288317084872
H         0.26319848658520    3.93513831023267   -3.38358713773635
B         1.56435288459678    0.61874419729305    1.85357541818986
O         2.92433503508931    0.56559995049110    2.13617355904432
C         3.36310017893528    1.88683790840715    2.50921573097921
C         4.53279886320062    1.78876465306243    3.48008006061627
H         4.28094639821946    1.16077628027030    4.33062945742678
H         5.38801595050246    1.34463354405632    2.97244439186312
H         4.81549631632049    2.77897665236396    3.83619502553602
C         3.79917499476326    2.57396636428117    1.21091236227788
H         4.20064138925123    3.56949574858337    1.39523647293948
H         4.56329041075666    1.96243522558519    0.73404606336039
H         2.95106834362522    2.62660485690405    0.52951730475613
C         2.05295909081925    2.50517465368318    3.08922039132906
O         1.04010902465910    1.80965812564169    2.33572003911534
C         1.89418111926822    4.00724700707107    2.88910532535751
H         1.86881223740506    4.25091611101087    1.83082906434148
H         0.95682739917781    4.33638051561978    3.33587559713283
H         2.71474841852937    4.54323906875596    3.36535475405526
C         1.83174164497832    2.14081414214567    4.56145064237716
H         1.93366320310612    1.06506834049485    4.69967908558040
H         2.53282374441870    2.66209650274893    5.21072330948796
H         0.81729712588133    2.41919701143558    4.84623614744400
B         2.27820000000001   -1.33090000000000    0.17410000000000
O         2.90080838681736   -2.56146352498324    0.39169927803266
C         4.26517511255875   -2.48349734795541   -0.07763487823799
C         5.10983395029020   -2.05872382848281    1.12804568894002
H         4.75400533438854   -1.09838059489685    1.49896007882529
H         4.97876673113484   -2.79424031829646    1.92097845162113
H         6.16746699214112   -1.99876992932395    0.87600220328625
C         4.71976551460634   -3.84561390872348   -0.58757218278346
H         4.74968623224510   -4.55008560795063    0.24236564750436
H         5.71747207236461   -3.77395179704517   -1.01981061701870
H         4.03414309682982   -4.23313572998567   -1.33632692478455
C         4.16591555035694   -1.36041715032441   -1.15773886749402
O         3.07352123863144   -0.56378863094264   -0.66206910098952
C         5.40922346391769   -0.49221127363902   -1.31537415210394
H         6.26533848490429   -1.09807770370266   -1.61103558748848
H         5.23103576698684    0.25879550492612   -2.08381424374946
H         5.63717740378377    0.02243048457530   -0.38643664178031
C         3.72909657693064   -1.89962464697947   -2.52584850550569
H         2.83708410085949   -2.51517430675649   -2.41748249595782
H         3.47204067170791   -1.05807074789099   -3.16775577209746
H         4.51930604232905   -2.47661053117990   -3.00333586710321
H        -3.38379449460900   -3.98800495368206   -2.57985756122703
H        -5.19946343095642    1.50488916964682    1.29579300711498
C         0.23590000000000   -1.68140000000000    2.96030000000000
C        -1.00164454774158   -2.15354077876727    3.39645728415156
C         1.29367464873375   -1.72266985023834    3.87186227111399
C        -1.22227130663049   -2.64053747133914    4.68401512097457
H        -1.83280473281733   -2.17152118633385    2.70726956402671
C         1.11665922672614   -2.19904505177860    5.15599747593415
H         2.27755670402102   -1.41105541173346    3.55536966514553
C        -0.12871113093182   -2.66499557791016    5.54592765087094
C        -2.57949812354423   -3.12634462699645    5.14727053199022
H         1.94937164106743   -2.25078620350216    5.84383989373886
Br       -0.26095969995926   -3.40715580858307    7.30862811186410
C        -3.24535836918235   -2.02972089658474    5.98553404787607
C        -3.50774462900689   -3.55729024290590    4.01236844139721
H        -2.42029967867855   -3.99981871525067    5.79096401380112
H        -3.38581477130623   -1.13231652194920    5.38523059596749
H        -2.63402093146544   -1.77318816552672    6.84835640626591
H        -4.21508629022594   -2.36731991796926    6.34604236959286
H        -3.83258605862073   -2.69992270444268    3.42624164984634
H        -4.39311034122456   -4.03266005828730    4.43128252369525
H        -3.01275662646242   -4.27057280064181    3.35613982524584
105
 energy: -149.510458734980 gnorm: 0.036897051638 xtb: 6.4.0 (f63f532)
N        -0.95457102750293   -2.09268170967003   -0.25993574714370
C        -2.23039150396366   -1.68351759476775   -0.36822578942726
C        -3.13060197714437   -2.35333192492592   -1.20491640334077
C        -2.70862841877872   -3.45256082310103   -1.92103466117338
C        -1.38917391260256   -3.87187620327602   -1.78574853564425
C        -0.55869668598894   -3.15792170156039   -0.94869773673761
H         0.47365586374873   -3.44199149093519   -0.80691969462440
H        -1.01869921576449   -4.73166470437881   -2.31906586533331
H        -4.14996468038779   -2.01930475318877   -1.30042987502326
C        -2.59793226236902   -0.51490851961907    0.42813792136939
N        -1.60810529351031    0.06069235274184    1.14073064377486
C        -1.89252455084061    1.12641464167618    1.88304552897308
C        -3.15516800182112    1.67692663728600    1.97291390085755
C        -4.18710220569352    1.09339674559257    1.24687276894642
C        -3.90164380674731   -0.00744376719100    0.46740865095577
H        -4.69084669856011   -0.47328582304633   -0.09804872240982
H        -3.33077700021493    2.53581178831835    2.59993342669737
H        -1.05472562197005    1.54940636922371    2.41352546496583
Ir        0.42150000000000   -0.81650000000000    0.91330000000000
H         0.87260000000000   -2.23030000000000    1.54050000000000
B         0.49433790164968    0.43460236438063   -0.76825934297148
O         0.15518875290498   -0.02523403982340   -2.03250768752069
C         0.00588235284811    1.09427741768750   -2.92317213763398
C         0.49010653068379    0.73953617274964   -4.32532672689789
H         1.50533048691828    0.35895742544229   -4.30507787616404
H         0.44577460838867    1.61821052954450   -4.96388497733522
H        -0.15278683427284   -0.02997931078269   -4.74474502635282
C        -1.49639401413188    1.40663465301739   -2.96935513512132
H        -1.71566970271442    2.21585883836060   -3.65938646886797
H        -2.02604765363238    0.51220309017640   -3.29062953533668
H        -1.84597368043701    1.66550856739198   -1.97204721397178
C         0.82465836291935    2.20658795487802   -2.19889394294659
O         0.75982389029036    1.78414369762001   -0.82635533662374
C         2.30449754721546    2.19566194184998   -2.59702583380237
H         2.70647233388230    1.19831271479381   -2.44041472294198
H         2.44245661546006    2.50964551199174   -3.62778463523676
H         2.84681818381071    2.87537197989079   -1.94435444934759
C         0.27061105011912    3.62120485842766   -2.33534043559442
H        -0.72861076153417    3.69657472580035   -1.91975583547985
H         0.91549735849083    4.30389504637798   -1.78860872558352
H         0.25359860930017    3.91672791165543   -3.38105166891585
B         1.56614916554753    0.62498581837142    1.86183824571331
O         2.92249101680484    0.57613295562734    2.12442989670443
C         3.36180924206484    1.88791255362052    2.51155568464361
C         4.52988979028056    1.78855022433529    3.48504867897163
H         4.28148150748214    1.15601203398046    4.33034136319482
H         5.38286200018828    1.35171052386932    2.97300143513705
H         4.80282043979735    2.77826068452281    3.83967941358998
C         3.80280519204386    2.58581539695543    1.22102637631649
H         4.20102683197752    3.57729530131122    1.41375125566490
H         4.56623771596298    1.97705301074854    0.74415796816719
H         2.95345563345244    2.63332190163183    0.54386744490626
C         2.05379641421934    2.50533902237544    3.09083252882145
O         1.04229010264165    1.80323229679449    2.35052383096047
C         1.89696357259659    4.00727102384263    2.88861860483785
H         1.86379769864172    4.24956609221049    1.83239696026837
H         0.96474236732460    4.33294626845074    3.34184055278268
H         2.72129445125298    4.53436433319018    3.36027689835606
C         1.84234393942306    2.14957491084616    4.56735870787890
H         1.94637627118102    1.07535178256855    4.70049515786606
H         2.54606606423796    2.67444308966543    5.20541063929004
H         0.83002749616678    2.42539288109190    4.85335709932686
B         2.27820000000002   -1.33090000000001    0.17410000000001
O         2.90282705880368   -2.54922176288464    0.40098302960375
C         4.25794023624374   -2.48174702446244   -0.07800721772029
C         5.11389686639922   -2.06078758708696    1.12062943412386
H         4.75353135509785   -1.10321636786681    1.48866595453877
H         4.98389208843930   -2.79498872639527    1.91141460867057
H         6.16582705396621   -2.00196671946643    0.85938833731052
C         4.71094072310789   -3.84362488111319   -0.59099573509240
H         4.74354747462153   -4.54178451184221    0.24038267223067
H         5.70453295221058   -3.76289939167162   -1.02241675891611
H         4.02506669942641   -4.23272798868261   -1.33521554016584
C         4.16088633239717   -1.36072524323684   -1.15634954561130
O         3.06109020682018   -0.57336593869880   -0.67063815335063
C         5.40557594565160   -0.49406873210502   -1.30971510380483
H         6.25399521522661   -1.10733681388098   -1.59964035662428
H         5.22899473359082    0.25013420115850   -2.08124241782108
H         5.63029139158071    0.02296015380439   -0.38399928397443
C         3.73898178143825   -1.90348176658864   -2.52832058768628
H         2.84801215426305   -2.51642280775530   -2.41948517674829
H         3.48583744935764   -1.06372475100803   -3.17071785442107
H         4.53560926423333   -2.47609080780303   -2.99275524472078
H        -3.38986381210049   -3.97776435377441   -2.57208610369656
H        -5.18981850729909    1.49005455158444    1.29144853446996
C         0.23590000000001   -1.68140000000000    2.96029999999999
C        -1.00153367956779   -2.15258512826639    3.39662063462154
C         1.29202053817093   -1.71584204517822    3.87625281686177
C        -1.22415667813036   -2.63357253303687    4.68485118722134
H        -1.83046247695278   -2.17421341884084    2.70631313815366
C         1.11072788495607   -2.18610365499296    5.16099609135760
H         2.27534727672328   -1.40337584820605    3.56125637219919
C        -0.13373168035841   -2.65155365567368    5.54736318926130
C        -2.57897249774958   -3.12102591619919    5.14529816532185
H         1.94025545610857   -2.23267242951686    5.85153301585461
Br       -0.26891785583896   -3.38991292725171    7.31792472135228
C        -3.25008157886031   -2.02418592796458    5.98026270384209
C        -3.50342750291776   -3.55749582595721    4.01123531579445
H        -2.41834323982999   -3.99219298913044    5.79242164874839
H        -3.39253439318349   -1.12958640841957    5.37785564133447
H        -2.64135840918106   -1.76439752638833    6.84279984394673
H        -4.21813652807493   -2.36554823170725    6.33865738087745
H        -3.83021790287626   -2.70338540368177    3.42267745448522
H        -4.38674101206894   -4.03382821697969    4.43076846392479
H        -3.00594108589220   -4.27072410314358    3.35816585184378
105
 energy: -149.511045054413 gnorm: 0.036214089299 xtb: 6.4.0 (f63f532)
N        -0.94576390175230   -2.08967706333998   -0.27083935127656
C        -2.22235383702708   -1.68041711094022   -0.37334626175644
C        -3.12787060868448   -2.34975233054488   -1.20584152954621
C        -2.71181160812322   -3.44924486901133   -1.92362590900062
C        -1.39056933765787   -3.86876568963705   -1.79495385086398
C        -0.55568082439393   -3.15403328954664   -0.96269234627330
H         0.47663876503783   -3.44210855112211   -0.82639636229545
H        -1.02439083063900   -4.72928342290262   -2.32901386572227
H        -4.14709461835234   -2.01394546694783   -1.29508791983845
C        -2.58782371406036   -0.51552253928602    0.42344878233648
N        -1.59848653055528    0.05964752304545    1.13759890334512
C        -1.88586809377965    1.12478872976102    1.87856233478862
C        -3.14879987484909    1.67369080134560    1.96979621898529
C        -4.18140196981414    1.08857143186201    1.24342737239125
C        -3.89283925554431   -0.00960000921745    0.46277466732878
H        -4.67971817525052   -0.47625808330195   -0.10490137726298
H        -3.32566721114626    2.53050170996697    2.59816636783874
H        -1.05132375157821    1.54923417328095    2.41354656898801
Ir        0.42150000000000   -0.81650000000000    0.91330000000000
H         0.87260000000000   -2.23030000000000    1.54050000000000
B         0.48159339096548    0.44837077094062   -0.74941901931355
O         0.13353813180883   -0.01648996998759   -2.00912091664495
C        -0.00304067480261    1.09499742645869   -2.90617781974449
C         0.48827802568425    0.73023238244729   -4.30410160088800
H         1.50093375917843    0.34366353600361   -4.27757641707161
H         0.45133135902195    1.60871739071104   -4.94274206021242
H        -0.15774809518619   -0.03632829671836   -4.72364927865275
C        -1.50404608824961    1.41586065573349   -2.96839700618516
H        -1.70864758907004    2.22310906676661   -3.66463102655509
H        -2.03483054345457    0.52300494380670   -3.29144025261385
H        -1.86176475866596    1.68116513738164   -1.97584671847408
C         0.81680336219480    2.20942418138338   -2.18597428236411
O         0.76056773474473    1.79304459911968   -0.81448551453125
C         2.29509846288142    2.20022373150013   -2.59320590050181
H         2.69945175420689    1.20488202155493   -2.43061632821495
H         2.42393133463109    2.50649277382240   -3.62704872882383
H         2.83853410554407    2.88701256934377   -1.94917613282089
C         0.26128134423372    3.62370847114382   -2.32937756667136
H        -0.73569734364784    3.70280247612777   -1.90956756318931
H         0.90985826346543    4.31053152931273   -1.79243801690944
H         0.23948471779508    3.90725897040696   -3.37804134380479
B         1.56735567731906    0.62902205541212    1.86460367188483
O         2.92340160606539    0.58278334223294    2.11357106554116
C         3.36196069191322    1.88933611166997    2.51251299369175
C         4.52915364884541    1.78641691506122    3.48821941883627
H         4.28214677838949    1.14786391936978    4.32919672529056
H         5.38430561545136    1.35663861000140    2.97410467877205
H         4.79564873707679    2.77565203347034    3.84822220325136
C         3.80700916284870    2.59820127876862    1.22836536444091
H         4.20161632627353    3.58867080859481    1.43072215603826
H         4.57377952911161    1.99436300278230    0.75077401300070
H         2.95932276300016    2.64741631022456    0.54964734746068
C         2.05443613838652    2.50512822629975    3.09475116690086
O         1.04154279396091    1.79803674654469    2.36452540740704
C         1.89633977831672    4.00740680906481    2.88967465503716
H         1.85511784769738    4.24798221081021    1.83340300817173
H         0.96845273127518    4.33460741727879    3.35034342678699
H         2.72596027705327    4.53215881901688    3.35396967944742
C         1.85272763387874    2.15675947150622    4.57543983493336
H         1.95950083247739    1.08343422312817    4.71155753343228
H         2.56022592410112    2.68658769389387    5.20448174022120
H         0.84185798929561    2.43244864630510    4.86570691522620
B         2.27820000000003   -1.33090000000001    0.17410000000001
O         2.90445108905408   -2.54288622836869    0.41061592603765
C         4.25341934163219   -2.48105425093314   -0.07754809817002
C         5.11935731668752   -2.06177379306782    1.11558425720245
H         4.76072639798490   -1.10440613035042    1.48534938688687
H         4.99330085140259   -2.79651270199135    1.90617598357770
H         6.16863081453169   -2.00390013238563    0.84588750694718
C         4.70200409691166   -3.84478382120648   -0.59215910693606
H         4.73839159244033   -4.54145796697091    0.24002309232508
H         5.69319375943452   -3.76165400200895   -1.02766797118369
H         4.01287526159494   -4.23423463484546   -1.33297263592321
C         4.15678286772947   -1.36144393681603   -1.15738202337739
O         3.05168640727905   -0.57861237352840   -0.68044229854796
C         5.40155230415676   -0.49305049251791   -1.30578876683437
H         6.24961185258945   -1.10990094194641   -1.58815959790984
H         5.22913391867021    0.24737785541340   -2.08162013153461
H         5.62127590846605    0.02725029064898   -0.38092505958896
C         3.74748740544510   -1.90765058491979   -2.53279441718641
H         2.85700488137835   -2.52175265957832   -2.42963669673574
H         3.49958488506464   -1.06912778198084   -3.17862366877175
H         4.55046161258346   -2.47896995192925   -2.98676326410960
H        -3.39670894026891   -3.97384691232856   -2.57091807749486
H        -5.18481210214914    1.48236674664649    1.28929489123866
C         0.23590000000001   -1.68140000000000    2.96029999999998
C        -1.00151122409921   -2.15223922565868    3.39599992660347
C         1.28992649878354   -1.70752694962204    3.87963526111329
C        -1.22665683215833   -2.62658563800693    4.68648965466676
H        -1.82843627752970   -2.17904758649306    2.70344901350645
C         1.10565459969768   -2.16963160121058    5.16701619885778
H         2.27311431749296   -1.39450893296202    3.56526507164894
C        -0.13869452492577   -2.63591814812019    5.55141725995699
C        -2.58070060383642   -3.11562186218841    5.14477928969785
H         1.93281295232112   -2.20908187642190    5.86078741352896
Br       -0.27707619499064   -3.36608731812431    7.32823320967242
C        -3.25758576842067   -2.01747816099103    5.97405348434495
C        -3.50058996921703   -3.55894329587884    4.00994957708056
H        -2.41911196348995   -3.98372710223371    5.79593845259654
H        -3.40153099864779   -1.12585181101285    5.36763823308686
H        -2.65132906046749   -1.75255153851461    6.83666890701685
H        -4.22509591637385   -2.36135833756341    6.33121633007945
H        -3.82870132678688   -2.70780256445952    3.41771877047092
H        -4.38319231520975   -4.03692985895016    4.42894449797810
H        -2.99869032032011   -4.27247690707780    3.36050409509432
105
 energy: -149.511741772985 gnorm: 0.036569609817 xtb: 6.4.0 (f63f532)
N        -0.93372411629044   -2.08972597017138   -0.28502653275143
C        -2.21158315440185   -1.67871549673377   -0.38058705143815
C        -3.12312939158503   -2.34638093976797   -1.20968466006942
C        -2.71424002786257   -3.44578295212833   -1.93115299843619
C        -1.39057888140820   -3.86547298822491   -1.81248750726395
C        -0.54933242791401   -3.15173572842631   -0.98444092597792
H         0.48471659031062   -3.44154053502769   -0.85999224197706
H        -1.02944011182513   -4.72575359636560   -2.35068629390940
H        -4.14255743609709   -2.00799359410529   -1.29029931058686
C        -2.57442592739964   -0.51691940788204    0.41831271514377
N        -1.58584147773520    0.05542872385069    1.13869528757660
C        -1.87592923908830    1.12173244872795    1.87883156733509
C        -3.13913998959156    1.67048421807543    1.96819793464145
C        -4.17196289038464    1.08530348683399    1.23903028439895
C        -3.87993839004954   -0.00943356421241    0.45559053919335
H        -4.66392517870107   -0.47598453342251   -0.11664604255526
H        -3.31721641765556    2.52614122593857    2.59773220799667
H        -1.04424070079613    1.54954730641397    2.41667491140188
Ir        0.42150000000000   -0.81650000000000    0.91330000000000
H         0.87260000000000   -2.23029999999999    1.54050000000000
B         0.47833425263834    0.46708066650051   -0.72448790643076
O         0.09942731205226   -0.00119964733820   -1.97450543360519