      -----------------------------------------------------------      
     |                   =====================                   |     
     |                           x T B                           |     
     |                   =====================                   |     
     |                         S. Grimme                         |     
     |          Mulliken Center for Theoretical Chemistry        |     
     |                    University of Bonn                     |     
      -----------------------------------------------------------      

   * xtb version 6.4.1 (1a32961) compiled by 'knkr256@seskscpg007.prim.scp' on 2021-10-19

   xtb is free software: you can redistribute it and/or modify it under
   the terms of the GNU Lesser General Public License as published by
   the Free Software Foundation, either version 3 of the License, or
   (at your option) any later version.
   
   xtb is distributed in the hope that it will be useful,
   but WITHOUT ANY WARRANTY; without even the implied warranty of
   MERCHANTABILITY or FITNESS FOR A PARTICULAR PURPOSE.  See the
   GNU Lesser General Public License for more details.
   
   Cite this work as:
   * C. Bannwarth, E. Caldeweyher, S. Ehlert, A. Hansen, P. Pracht,
     J. Seibert, S. Spicher, S. Grimme, WIREs Comput. Mol. Sci., 2020, 11,
     e01493. DOI: 10.1002/wcms.1493
   
   for GFN2-xTB:
   * C. Bannwarth, S. Ehlert and S. Grimme., J. Chem. Theory Comput., 2019,
     15, 1652-1671. DOI: 10.1021/acs.jctc.8b01176
   for GFN1-xTB:
   * S. Grimme, C. Bannwarth, P. Shushkov, J. Chem. Theory Comput., 2017,
     13, 1989-2009. DOI: 10.1021/acs.jctc.7b00118
   for GFN0-xTB:
   * P. Pracht, E. Caldeweyher, S. Ehlert, S. Grimme, ChemRxiv, 2019, preprint.
     DOI: 10.26434/chemrxiv.8326202.v1
   for GFN-FF:
   * S. Spicher and S. Grimme, Angew. Chem. Int. Ed., 2020, 59, 15665-15673.
     DOI: 10.1002/anie.202004239
   
   for ALPB and GBSA implicit solvation:
   * S. Ehlert, M. Stahn, S. Spicher, S. Grimme, J. Chem. Theory Comput.,
     2021, 17, 4250-4261. DOI: 10.1021/acs.jctc.1c00471
   
   for DFT-D4:
   * E. Caldeweyher, C. Bannwarth and S. Grimme, J. Chem. Phys., 2017,
     147, 034112. DOI: 10.1063/1.4993215
   * E. Caldeweyher, S. Ehlert, A. Hansen, H. Neugebauer, S. Spicher,
     C. Bannwarth and S. Grimme, J. Chem. Phys., 2019, 150, 154122.
     DOI: 10.1063/1.5090222
   * E. Caldeweyher, J.-M. Mewes, S. Ehlert and S. Grimme, Phys. Chem. Chem. Phys.
     2020, 22, 8499-8512. DOI: 10.1039/D0CP00502A
   
   for sTDA-xTB:
   * S. Grimme and C. Bannwarth, J. Chem. Phys., 2016, 145, 054103.
     DOI: 10.1063/1.4959605
   
   in the mass-spec context:
   * V. Asgeirsson, C. Bauer and S. Grimme, Chem. Sci., 2017, 8, 4879.
     DOI: 10.1039/c7sc00601b
   * J. Koopman and S. Grimme, ACS Omega 2019, 4, 12, 15120-15133.
     DOI: 10.1021/acsomega.9b02011
   
   for metadynamics refer to:
   * S. Grimme, J. Chem. Theory Comput., 2019, 155, 2847-2862
     DOI: 10.1021/acs.jctc.9b00143
   
   for SPH calculations refer to:
   * S. Spicher and S. Grimme, J. Chem. Theory Comput., 2021, 17, 1701-1714
     DOI: 10.1021/acs.jctc.0c01306
   
   with help from (in alphabetical order)
   P. Atkinson, C. Bannwarth, F. Bohle, G. Brandenburg, E. Caldeweyher
   M. Checinski, S. Dohm, S. Ehlert, S. Ehrlich, I. Gerasimov, J. Koopman
   C. Lavigne, S. Lehtola, F. März, M. Müller, F. Musil, H. Neugebauer
   J. Pisarek, C. Plett, P. Pracht, J. Seibert, P. Shushkov, S. Spicher
   M. Stahn, M. Steiner, T. Strunk, J. Stückrath, T. Rose, and J. Unsleber
   
 * started run on 2022/01/14 at 13:28:43.794     

           -------------------------------------------------
          |                Calculation Setup                |
           -------------------------------------------------

          program call               : xtb xtbopt.xyz --sp --alpb thf -P 6
          hostname                   : seskscpg007.prim.scp
          coordinate file            : xtbopt.xyz
          omp threads                :                     6
          number of atoms            :                    99
          number of electrons        :                   280
          charge                     :                     0
          spin                       :                   0.0
          first test random number   :      0.13560005814117

   ID    Z sym.   atoms
    1    7 N      1, 11
    2    6 C      2-6, 10, 12-15, 23, 24, 28, 32, 34, 38, 44, 45, 49, 53, 55,
                  59, 65, 66, 70, 74, 76, 80, 86-89, 91, 93, 94
    3    1 H      7-9, 16-18, 20, 25-27, 29-31, 35-37, 39-41, 46-48, 50-52,
                  56-58, 60-62, 67-69, 71-73, 77-79, 81-85, 90, 92, 96
    4   77 Ir     19
    5    5 B      21, 42, 63
    6    8 O      22, 33, 43, 54, 64, 75
    7   35 Br     95
    8    9 F      97-99

molecular fragmentation (1/2 indicates fragments):
111111111111111111111111111111111111111111111111111111111111111111111111
111111111111122222222222222
# atoms in fragment 1/2:    85    14
 fragment masses (1/2) :      730.32      224.00
CMA distance (Bohr)    :  10.595
constraining FC (au)   :  0.0500

           -------------------------------------------------
          |                 G F N 2 - x T B                 |
           -------------------------------------------------

        Reference                      10.1021/acs.jctc.8b01176
      * Hamiltonian:
        H0-scaling (s, p, d)           1.850000    2.230000    2.230000
        zeta-weighting                 0.500000
      * Dispersion:
        s8                             2.700000
        a1                             0.520000
        a2                             5.000000
        s9                             5.000000
      * Repulsion:
        kExp                           1.500000    1.000000
        rExp                           1.000000
      * Coulomb:
        alpha                          2.000000
        third order                    shell-resolved
        anisotropic                    true
        a3                             3.000000
        a5                             4.000000
        cn-shift                       1.200000
        cn-exp                         4.000000
        max-rad                        5.000000

      * Solvation model:               ALPB
        Solvent                        thf
        Parameter file                 internal GFN2-xTB/ALPB
        Dielectric constant                7.6000E+00
        Reference state                gsolv [1 M gas/solution]
        Free energy shift                  5.3248E-03 Eh       3.3414E+00 kcal/mol
        Temperature                        2.9815E+02 K
        Density                            8.8300E-01 kg/L
        Solvent mass                       7.2106E+01 g/mol
        Interaction kernel             P16
        Born radius scaling (c1)           1.7311E+00
        Born radii integrator          GBOBC
        Born offset                        0.0000E+00 a0       0.0000E+00 AA
        H-bond correction              true
        Ion screening                  false
        Surface tension                    1.0000E-05 Eh       1.5569E+01 dyn/cm
        Grid points                               230 per atom
q/qsh data taken from xtbrestart
CAMM data taken from xtbrestart

          ...................................................
          :                      SETUP                      :
          :.................................................:
          :  # basis functions                 264          :
          :  # atomic orbitals                 262          :
          :  # shells                          152          :
          :  # electrons                       280          :
          :  max. iterations                   250          :
          :  Hamiltonian                  GFN2-xTB          :
          :  restarted?                       true          :
          :  GBSA solvation                   true          :
          :  PC potential                    false          :
          :  electronic temp.          300.0000000     K    :
          :  accuracy                    1.0000000          :
          :  -> integral cutoff          0.2500000E+02      :
          :  -> integral neglect         0.1000000E-07      :
          :  -> SCF convergence          0.1000000E-05 Eh   :
          :  -> wf. convergence          0.1000000E-03 e    :
          :  Broyden damping             0.4000000          :
          ...................................................

 iter      E             dE          RMSdq      gap      omega  full diag
   1   -157.6791980 -0.157679E+03  0.738E-05    0.94       0.0  T
   2   -157.6791980  0.129700E-08  0.134E-04    0.94      74.9  T
   3   -157.6791980 -0.155634E-08  0.396E-05    0.94     253.6  T

   *** convergence criteria satisfied after 3 iterations ***

         #    Occupation            Energy/Eh            Energy/eV
      -------------------------------------------------------------
         1        2.0000           -0.8869654             -24.1356
       ...           ...                  ...                  ...
       134        2.0000           -0.3868583             -10.5269
       135        2.0000           -0.3587173              -9.7612
       136        2.0000           -0.3432516              -9.3404
       137        2.0000           -0.3344831              -9.1017
       138        2.0000           -0.3302252              -8.9859
       139        2.0000           -0.3217255              -8.7546
       140        2.0000           -0.3189971              -8.6804 (HOMO)
       141                         -0.2846204              -7.7449 (LUMO)
       142                         -0.2571905              -6.9985
       143                         -0.2564210              -6.9776
       144                         -0.2539393              -6.9100
       145                         -0.2469644              -6.7202
       ...                                ...                  ...
       262                          3.7631967             102.4018
      -------------------------------------------------------------
                  HL-Gap            0.0343767 Eh            0.9354 eV
             Fermi-level           -0.3017826 Eh           -8.2119 eV

 SCC (total)                   0 d,  0 h,  0 min,  0.092 sec
 SCC setup                      ...        0 min,  0.002 sec (  2.623%)
 Dispersion                     ...        0 min,  0.003 sec (  3.157%)
 classical contributions        ...        0 min,  0.000 sec (  0.161%)
 integral evaluation            ...        0 min,  0.012 sec ( 12.617%)
 iterations                     ...        0 min,  0.038 sec ( 41.353%)
 molecular gradient             ...        0 min,  0.036 sec ( 39.157%)
 printout                       ...        0 min,  0.001 sec (  0.840%)

         :::::::::::::::::::::::::::::::::::::::::::::::::::::
         ::                     SUMMARY                     ::
         :::::::::::::::::::::::::::::::::::::::::::::::::::::
         :: total energy            -155.871449618446 Eh    ::
         :: total w/o Gsasa/hb      -155.832435318269 Eh    ::
         :: gradient norm              0.034879683278 Eh/a0 ::
         :: HOMO-LUMO gap              0.935437152553 eV    ::
         ::.................................................::
         :: SCC energy              -157.679198020784 Eh    ::
         :: -> isotropic ES            0.274602826152 Eh    ::
         :: -> anisotropic ES          0.006234920961 Eh    ::
         :: -> anisotropic XC          0.022556992055 Eh    ::
         :: -> dispersion             -0.139744285984 Eh    ::
         :: -> Gsolv                  -0.050054144902 Eh    ::
         ::    -> Gelec               -0.011039844725 Eh    ::
         ::    -> Gsasa               -0.041703039585 Eh    ::
         ::    -> Ghb                 -0.002636076036 Eh    ::
         ::    -> Gshift               0.005324815444 Eh    ::
         :: repulsion energy           1.799281498212 Eh    ::
         :: add. restraining           0.000000000000 Eh    ::
         :: total charge               0.000000001572 e     ::
         :::::::::::::::::::::::::::::::::::::::::::::::::::::

           -------------------------------------------------
          |                Property Printout                |
           -------------------------------------------------

    * Orbital Energies and Occupations

         #    Occupation            Energy/Eh            Energy/eV
      -------------------------------------------------------------
         1        2.0000           -0.8869654             -24.1356
       ...           ...                  ...                  ...
       128        2.0000           -0.4079768             -11.1016
       129        2.0000           -0.4039977             -10.9933
       130        2.0000           -0.4013479             -10.9212
       131        2.0000           -0.3961642             -10.7802
       132        2.0000           -0.3907351             -10.6324
       133        2.0000           -0.3886269             -10.5751
       134        2.0000           -0.3868583             -10.5269
       135        2.0000           -0.3587173              -9.7612
       136        2.0000           -0.3432516              -9.3404
       137        2.0000           -0.3344831              -9.1017
       138        2.0000           -0.3302252              -8.9859
       139        2.0000           -0.3217255              -8.7546
       140        2.0000           -0.3189971              -8.6804 (HOMO)
       141                         -0.2846204              -7.7449 (LUMO)
       142                         -0.2571905              -6.9985
       143                         -0.2564210              -6.9776
       144                         -0.2539393              -6.9100
       145                         -0.2469644              -6.7202
       146                         -0.2138289              -5.8186
       147                         -0.2120806              -5.7710
       148                         -0.1966122              -5.3501
       149                         -0.1607872              -4.3752
       150                         -0.1338273              -3.6416
       151                         -0.1310941              -3.5673
       ...                                ...                  ...
       262                          3.7631967             102.4018
      -------------------------------------------------------------
                  HL-Gap            0.0343767 Eh            0.9354 eV
             Fermi-level           -0.3017826 Eh           -8.2119 eV

     #   Z          covCN         q      C6AA      α(0)
     1   7 N        2.533    -0.121    23.663     7.224
     2   6 C        2.954     0.079    26.232     8.401
     3   6 C        2.918    -0.041    29.028     8.835
     4   6 C        2.924    -0.019    28.494     8.754
     5   6 C        2.915    -0.041    29.018     8.833
     6   6 C        2.893     0.048    26.920     8.507
     7   1 H        0.926     0.059     2.212     2.326
     8   1 H        0.926     0.063     2.164     2.300
     9   1 H        0.926     0.052     2.296     2.369
    10   6 C        2.953     0.075    26.318     8.414
    11   7 N        2.538    -0.130    23.848     7.252
    12   6 C        2.891     0.041    27.086     8.533
    13   6 C        2.915    -0.043    29.067     8.841
    14   6 C        2.923    -0.022    28.546     8.762
    15   6 C        2.919    -0.045    29.106     8.847
    16   1 H        0.926     0.053     2.288     2.365
    17   1 H        0.926     0.057     2.235     2.338
    18   1 H        0.926     0.079     1.987     2.204
    19  77 Ir       5.908    -0.142   386.585    36.359
    20   1 H        0.977     0.100     1.777     2.083
    21   5 B        2.635     0.402    16.006     6.754
    22   8 O        1.638    -0.403    20.922     6.174
    23   6 C        3.837     0.129    18.459     6.112
    24   6 C        3.755    -0.124    22.929     6.828
    25   1 H        0.925     0.056     2.245     2.343
    26   1 H        0.925     0.047     2.358     2.401
    27   1 H        0.925     0.053     2.288     2.366
    28   6 C        3.754    -0.111    22.688     6.792
    29   1 H        0.925     0.050     2.321     2.383
    30   1 H        0.925     0.043     2.409     2.427
    31   1 H        0.925     0.028     2.610     2.527
    32   6 C        3.843     0.130    18.445     6.109
    33   8 O        1.637    -0.398    20.823     6.160
    34   6 C        3.755    -0.124    22.928     6.828
    35   1 H        0.925     0.053     2.283     2.363
    36   1 H        0.925     0.048     2.340     2.392
    37   1 H        0.925     0.052     2.297     2.370
    38   6 C        3.754    -0.122    22.891     6.822
    39   1 H        0.925     0.048     2.347     2.396
    40   1 H        0.925     0.055     2.258     2.350
    41   1 H        0.925     0.047     2.356     2.400
    42   5 B        2.627     0.401    16.067     6.775
    43   8 O        1.637    -0.378    20.435     6.102
    44   6 C        3.838     0.128    18.474     6.115
    45   6 C        3.755    -0.128    23.007     6.839
    46   1 H        0.925     0.057     2.237     2.339
    47   1 H        0.925     0.058     2.220     2.330
    48   1 H        0.925     0.052     2.296     2.370
    49   6 C        3.755    -0.124    22.936     6.829
    50   1 H        0.925     0.051     2.310     2.377
    51   1 H        0.925     0.049     2.338     2.391
    52   1 H        0.925     0.054     2.266     2.354
    53   6 C        3.832     0.127    18.492     6.118
    54   8 O        1.637    -0.382    20.520     6.115
    55   6 C        3.755    -0.126    22.967     6.833
    56   1 H        0.925     0.056     2.250     2.346
    57   1 H        0.925     0.055     2.264     2.353
    58   1 H        0.925     0.051     2.312     2.378
    59   6 C        3.755    -0.122    22.888     6.822
    60   1 H        0.925     0.044     2.403     2.424
    61   1 H        0.925     0.056     2.246     2.344
    62   1 H        0.925     0.049     2.339     2.391
    63   5 B        2.627     0.399    16.083     6.778
    64   8 O        1.637    -0.376    20.404     6.097
    65   6 C        3.831     0.124    18.537     6.126
    66   6 C        3.755    -0.133    23.108     6.854
    67   1 H        0.925     0.061     2.182     2.310
    68   1 H        0.925     0.055     2.259     2.350
    69   1 H        0.925     0.052     2.294     2.369
    70   6 C        3.755    -0.131    23.065     6.848
    71   1 H        0.925     0.061     2.186     2.312
    72   1 H        0.925     0.053     2.288     2.366
    73   1 H        0.925     0.053     2.288     2.365
    74   6 C        3.830     0.126    18.514     6.122
    75   8 O        1.637    -0.372    20.327     6.086
    76   6 C        3.755    -0.126    22.981     6.835
    77   1 H        0.925     0.053     2.284     2.363
    78   1 H        0.925     0.056     2.251     2.346
    79   1 H        0.925     0.057     2.239     2.340
    80   6 C        3.755    -0.125    22.954     6.831
    81   1 H        0.925     0.042     2.419     2.432
    82   1 H        0.925     0.053     2.288     2.366
    83   1 H        0.925     0.057     2.240     2.340
    84   1 H        0.926     0.059     2.205     2.322
    85   1 H        0.926     0.056     2.244     2.343
    86   6 C        2.831    -0.028    28.679     8.776
    87   6 C        2.924    -0.028    28.707     8.787
    88   6 C        2.994    -0.035    28.861     8.812
    89   6 C        2.978    -0.037    28.902     8.819
    90   1 H        0.926     0.052     2.301     2.372
    91   6 C        2.918     0.083    26.157     8.387
    92   1 H        0.926     0.076     2.018     2.222
    93   6 C        3.000    -0.045    29.114     8.851
    94   6 C        3.337     0.487    17.255     6.576
    95  35 Br       1.077    -0.167   189.682    22.206
    96   1 H        0.926     0.065     2.143     2.289
    97   9 F        0.791    -0.219    11.429     3.993
    98   9 F        0.791    -0.219    11.433     3.994
    99   9 F        0.791    -0.226    11.505     4.007

 Mol. C6AA /au·bohr⁶  :     112815.934012
 Mol. C8AA /au·bohr⁸  :    3142668.762789
 Mol. α(0) /au        :        519.383561


Wiberg/Mayer (AO) data.
largest (>0.10) Wiberg bond orders for each atom

 ---------------------------------------------------------------------------
     #   Z sym  total        # sym  WBO       # sym  WBO       # sym  WBO
 ---------------------------------------------------------------------------
     1   7 N    3.393 --     6 C    1.395     2 C    1.324    19 Ir   0.417
     2   6 C    3.979 --     3 C    1.356     1 N    1.324    10 C    1.081
     3   6 C    3.988 --     4 C    1.476     2 C    1.356     9 H    0.961
                             6 C    0.106
     4   6 C    3.985 --     3 C    1.476     5 C    1.394    84 H    0.968
     5   6 C    3.979 --     6 C    1.452     4 C    1.394     8 H    0.968
     6   6 C    3.977 --     5 C    1.452     1 N    1.395     7 H    0.956
                             3 C    0.106
     7   1 H    0.996 --     6 C    0.956
     8   1 H    0.995 --     5 C    0.968
     9   1 H    0.997 --     3 C    0.961
    10   6 C    3.979 --    15 C    1.360    11 N    1.316     2 C    1.081
    11   7 N    3.398 --    12 C    1.395    10 C    1.316    19 Ir   0.408
    12   6 C    3.972 --    13 C    1.449    11 N    1.395    18 H    0.947
                            15 C    0.105
    13   6 C    3.981 --    12 C    1.449    14 C    1.396    17 H    0.968
    14   6 C    3.983 --    15 C    1.471    13 C    1.396    85 H    0.968
    15   6 C    3.988 --    14 C    1.471    10 C    1.360    16 H    0.961
                            12 C    0.105
    16   1 H    0.997 --    15 C    0.961
    17   1 H    0.996 --    13 C    0.968
    18   1 H    0.993 --    12 C    0.947
    19  77 Ir   5.107 --    63 B    0.855    42 B    0.852    21 B    0.745
                            86 C    0.586    20 H    0.538     1 N    0.417
                            11 N    0.408
    20   1 H    0.986 --    19 Ir   0.538    86 C    0.348
    21   5 B    3.285 --    33 O    1.118    22 O    1.099    19 Ir   0.745
    22   8 O    2.199 --    21 B    1.099    23 C    0.940
    23   6 C    3.942 --    24 C    0.997    28 C    0.990    32 C    0.941
                            22 O    0.940
    24   6 C    3.993 --    23 C    0.997    26 H    0.983    27 H    0.983
                            25 H    0.982
    25   1 H    0.997 --    24 C    0.982
    26   1 H    0.997 --    24 C    0.983
    27   1 H    0.997 --    24 C    0.983
    28   6 C    3.996 --    23 C    0.990    31 H    0.985    30 H    0.984
                            29 H    0.984
    29   1 H    0.997 --    28 C    0.984
    30   1 H    0.998 --    28 C    0.984
    31   1 H    0.999 --    28 C    0.985
    32   6 C    3.938 --    38 C    0.997    34 C    0.991    23 C    0.941
                            33 O    0.936
    33   8 O    2.209 --    21 B    1.118    32 C    0.936
    34   6 C    3.993 --    32 C    0.991    36 H    0.983    37 H    0.982
                            35 H    0.981
    35   1 H    0.997 --    34 C    0.981
    36   1 H    0.997 --    34 C    0.983
    37   1 H    0.997 --    34 C    0.982
    38   6 C    3.994 --    32 C    0.997    41 H    0.983    39 H    0.983
                            40 H    0.982
    39   1 H    0.998 --    38 C    0.983
    40   1 H    0.997 --    38 C    0.982
    41   1 H    0.997 --    38 C    0.983
    42   5 B    3.344 --    43 O    1.130    54 O    1.113    19 Ir   0.852
    43   8 O    2.233 --    42 B    1.130    44 C    0.932
    44   6 C    3.935 --    45 C    0.997    49 C    0.991    53 C    0.939
                            43 O    0.932
    45   6 C    3.992 --    44 C    0.997    48 H    0.983    46 H    0.982
                            47 H    0.981
    46   1 H    0.997 --    45 C    0.982
    47   1 H    0.996 --    45 C    0.981
    48   1 H    0.996 --    45 C    0.983
    49   6 C    3.993 --    44 C    0.991    50 H    0.983    51 H    0.982
                            52 H    0.979
    50   1 H    0.996 --    49 C    0.983
    51   1 H    0.997 --    49 C    0.982
    52   1 H    0.997 --    49 C    0.979
    53   6 C    3.936 --    55 C    0.996    59 C    0.992    44 C    0.939
                            54 O    0.930
    54   8 O    2.231 --    42 B    1.113    53 C    0.930
    55   6 C    3.992 --    53 C    0.996    57 H    0.983    58 H    0.983
                            56 H    0.982
    56   1 H    0.997 --    55 C    0.982
    57   1 H    0.997 --    55 C    0.983
    58   1 H    0.996 --    55 C    0.983
    59   6 C    3.994 --    53 C    0.992    62 H    0.983    61 H    0.982
                            60 H    0.981
    60   1 H    0.998 --    59 C    0.981
    61   1 H    0.996 --    59 C    0.982
    62   1 H    0.997 --    59 C    0.983
    63   5 B    3.374 --    75 O    1.133    64 O    1.115    19 Ir   0.855
    64   8 O    2.233 --    63 B    1.115    65 C    0.935
    65   6 C    3.935 --    70 C    0.997    66 C    0.992    74 C    0.937
                            64 O    0.935
    66   6 C    3.992 --    65 C    0.992    69 H    0.983    68 H    0.982
                            67 H    0.978
    67   1 H    0.996 --    66 C    0.978
    68   1 H    0.997 --    66 C    0.982
    69   1 H    0.996 --    66 C    0.983
    70   6 C    3.992 --    65 C    0.997    72 H    0.983    73 H    0.982
                            71 H    0.982
    71   1 H    0.996 --    70 C    0.982
    72   1 H    0.996 --    70 C    0.983
    73   1 H    0.997 --    70 C    0.982
    74   6 C    3.933 --    76 C    0.996    80 C    0.992    65 C    0.937
                            75 O    0.932
    75   8 O    2.245 --    63 B    1.133    74 C    0.932
    76   6 C    3.992 --    74 C    0.996    77 H    0.983    78 H    0.982
                            79 H    0.981
    77   1 H    0.996 --    76 C    0.983
    78   1 H    0.997 --    76 C    0.982
    79   1 H    0.997 --    76 C    0.981
    80   6 C    3.994 --    74 C    0.992    81 H    0.984    83 H    0.983
                            82 H    0.983
    81   1 H    0.998 --    80 C    0.984
    82   1 H    0.997 --    80 C    0.983
    83   1 H    0.996 --    80 C    0.983
    84   1 H    0.996 --     4 C    0.968
    85   1 H    0.996 --    14 C    0.968
    86   6 C    3.922 --    87 C    1.371    88 C    1.362    19 Ir   0.586
                            20 H    0.348
    87   6 C    3.987 --    89 C    1.414    86 C    1.371    90 H    0.962
    88   6 C    3.986 --    91 C    1.432    86 C    1.362    92 H    0.957
    89   6 C    3.958 --    87 C    1.414    93 C    1.392    94 C    0.951
    90   1 H    0.996 --    87 C    0.962
    91   6 C    3.936 --    88 C    1.432    93 C    1.399    95 Br   0.967
    92   1 H    0.993 --    88 C    0.957
    93   6 C    3.981 --    91 C    1.399    89 C    1.392    96 H    0.966
    94   6 C    3.799 --    89 C    0.951    97 F    0.943    98 F    0.939
                            99 F    0.928
    95  35 Br   1.092 --    91 C    0.967
    96   1 H    0.995 --    93 C    0.966
    97   9 F    1.062 --    94 C    0.943
    98   9 F    1.061 --    94 C    0.939
    99   9 F    1.053 --    94 C    0.928
 ---------------------------------------------------------------------------

Topologies differ in total number of bonds
Writing topology from bond orders to xtbtopo.mol

molecular dipole:
                 x           y           z       tot (Debye)
 q only:        1.256       1.130      -3.388
   full:       -0.575       1.189      -4.064      10.860
molecular quadrupole (traceless):
                xx          xy          yy          xz          yz          zz
 q only:       21.101      -8.037      14.725      17.451      30.870     -35.825
  q+dip:       24.852      -4.447      19.688       3.554      33.977     -44.540
   full:       22.075      -3.748      22.407       2.567      31.183     -44.481


           -------------------------------------------------
          | TOTAL ENERGY             -155.871449618446 Eh   |
          | GRADIENT NORM               0.034879683278 Eh/α |
          | HOMO-LUMO GAP               0.935437152553 eV   |
           -------------------------------------------------

------------------------------------------------------------------------
 * finished run on 2022/01/14 at 13:28:43.920     
------------------------------------------------------------------------
 total:
 * wall-time:     0 d,  0 h,  0 min,  0.126 sec
 *  cpu-time:     0 d,  0 h,  0 min,  0.729 sec
 * ratio c/w:     5.805 speedup
 SCF:
 * wall-time:     0 d,  0 h,  0 min,  0.094 sec
 *  cpu-time:     0 d,  0 h,  0 min,  0.556 sec
 * ratio c/w:     5.949 speedup

