99
 energy: -155.858684816586 gnorm: 0.075858132550 xtb: 6.4.1 (1a32961)
N        -0.96510000000000   -2.11530000000000   -0.24090000000000
C        -2.24700000000000   -1.69840000000000   -0.36220000000000
C        -3.14040000000000   -2.36820000000000   -1.21200000000000
C        -2.70220000000000   -3.47560000000000   -1.93050000000000
C        -1.37780000000000   -3.89880000000000   -1.78760000000000
C        -0.54290000000000   -3.18670000000000   -0.93510000000000
H         0.49810000000000   -3.45630000000000   -0.78940000000000
H        -0.99570000000000   -4.76030000000000   -2.32770000000000
H        -4.16500000000000   -2.02890000000000   -1.31830000000000
C        -2.62130000000000   -0.50950000000000    0.44100000000000
N        -1.62600000000000    0.07330000000000    1.16020000000000
C        -1.89680000000000    1.15240000000000    1.91690000000000
C        -3.17230000000000    1.70330000000000    1.99650000000000
C        -4.20510000000000    1.11740000000000    1.26270000000000
C        -3.92610000000000    0.00250000000000    0.47820000000000
H        -4.71960000000000   -0.46420000000000   -0.09520000000000
H        -3.34630000000000    2.57510000000000    2.62070000000000
H        -1.04450000000000    1.57420000000000    2.43690000000000
Ir        0.42150000000000   -0.81650000000000    0.91330000000000
H         0.87260000000000   -2.23030000000000    1.54050000000000
B         0.50670000000000    0.41560000000000   -0.81540000000000
O         0.19500000000000   -0.04700000000000   -2.09150000000000
C         0.00650000000000    1.10040000000000   -2.95430000000000
C         0.49020000000000    0.74740000000000   -4.35780000000000
H         1.51610000000000    0.37380000000000   -4.33700000000000
H         0.44730000000000    1.62240000000000   -5.01670000000000
H        -0.14740000000000   -0.03390000000000   -4.78430000000000
C        -1.50120000000000    1.39560000000000   -2.96670000000000
H        -1.75370000000000    2.21460000000000   -3.64850000000000
H        -2.03200000000000    0.49450000000000   -3.28930000000000
H        -1.85170000000000    1.65210000000000   -1.96220000000000
C         0.84229999999999    2.20670000000000   -2.22040000000000
O         0.75200000000000    1.78260000000000   -0.83690000000000
C         2.32930000000000    2.18620000000000   -2.59900000000000
H         2.74130000000000    1.18500000000000   -2.45750000000000
H         2.48870000000000    2.51300000000000   -3.63180000000000
H         2.87200000000000    2.86270000000000   -1.93200000000000
C         0.28440000000000    3.62290000000000   -2.33660000000000
H        -0.72650000000000    3.69040000000000   -1.92910000000000
H         0.92130000000000    4.31480000000000   -1.77610000000000
H         0.26430000000000    3.94810000000000   -3.38320000000000
B         1.56300000000000    0.60960000000000    1.84840000000000
O         2.92780000000000    0.55230000000000    2.15020000000000
C         3.36330000000000    1.88660000000000    2.50260000000001
C         4.53140000000000    1.78590000000000    3.47740000000001
H         4.27910000000000    1.16090000000000    4.33690000000000
H         5.39390000000000    1.33790000000000    2.97340000000000
H         4.82390000000000    2.77870000000000    3.83820000000000
C         3.79700000000000    2.56850000000000    1.19669999999999
H         4.20020000000000    3.57090000000000    1.37680000000000
H         4.56740000000000    1.95560000000000    0.72110000000000
H         2.95240000000000    2.63260000000000    0.50540000000000
C         2.05040000000000    2.50090000000000    3.09320000000000
O         1.03750000000000    1.81620000000000    2.31910000000000
C         1.89100000000000    4.00450000000000    2.88650000000000
H         1.87290000000000    4.25440000000000    1.82410000000000
H         0.94940000000000    4.34260000000000    3.33170000000000
H         2.71080000000000    4.55150000000000    3.36630000000000
C         1.82470000000001    2.13200000000001    4.56520000000000
H         1.92610000000000    1.05330000000000    4.71320000000000
H         2.52610000000000    2.65280000000000    5.22540000000000
H         0.80630000000000    2.41580000000000    4.84900000000000
B         2.27820000000000   -1.33090000000000    0.17410000000000
O         2.89460000000000   -2.57740000000000    0.38450000000000
C         4.26930000000000   -2.48200000000000   -0.07210000000000
C         5.10900000000000   -2.05380000000000    1.14010000000000
H         4.76350000000000   -1.08740000000000    1.51750000000000
H         4.98050000000000   -2.79470000000000    1.93590000000000
H         6.17420000000000   -1.99290000000000    0.89300000000000
C         4.71950000000000   -3.84660000000000   -0.58470000000000
H         4.75280000000000   -4.56130000000000    0.24420000000000
H         5.72330000000000   -3.78370000000000   -1.02010000000000
H         4.03500000000000   -4.23600000000000   -1.34170000000000
C         4.16440000000000   -1.36220000000000   -1.16300000000000
O         3.08520000000000   -0.55030000000000   -0.65400000000000
C         5.40720000000000   -0.48870000000000   -1.31550000000000
H         6.27320000000000   -1.09010000000000   -1.61530000000000
H         5.23300000000000    0.26930000000000   -2.08590000000000
H         5.64270000000000    0.02650000000000   -0.38240000000000
C         3.71799999999999   -1.89830000000000   -2.53110000000000
H         2.82530000000000   -2.52160000000000   -2.42740000000000
H         3.46090000000000   -1.05250000000000   -3.17550000000000
H         4.50570000000000   -2.48290000000000   -3.01790000000000
H        -3.38500000000000   -4.00130000000000   -2.59310000000001
H        -5.21400000000000    1.52080000000000    1.29960000000000
C         0.23590000000000   -1.68140000000000    2.96030000000000
C        -0.97846912727781   -2.21242579445611    3.39910667945670
C         1.27454019809537   -1.60070785435563    3.89343775697062
C        -1.15402946011013   -2.59565713151270    4.72803930775613
H        -1.79964653941870   -2.35954720233279    2.70788376966830
C         1.07867212946525   -1.96120102042726    5.21497258328341
H         2.25120988347503   -1.26802103637910    3.56716858243186
C        -0.13299484869614   -2.46512692700161    5.66622968211636
C        -2.46905310191169   -3.16604982953584    5.17149576382575
Br        2.51593224286206   -1.80999700734195    6.44329319459678
H        -0.27068545481048   -2.77447151361781    6.69392688097893
F        -3.13208876821333   -3.81104795972612    4.18602652626752
F        -2.35346604212805   -4.05632432198310    6.18123287325797
F        -3.32862060929680   -2.21891109598599    5.62190754683681
99
 energy: -155.865187656009 gnorm: 0.045956906597 xtb: 6.4.1 (1a32961)
N        -0.96386045607308   -2.10382266017216   -0.25009696568093
C        -2.23988337964262   -1.69171246098979   -0.36407572252511
C        -3.13450955807820   -2.36180042829108   -1.20655096022461
C        -2.70416009234362   -3.46390753657069   -1.92239525319501
C        -1.38525877262833   -3.88327429831698   -1.78354616726126
C        -0.55507469685490   -3.16970438224032   -0.94032988647821
H         0.47881174174696   -3.44881754225390   -0.79107766815951
H        -1.00893479834923   -4.74302705822894   -2.31885057013243
H        -4.15480888618824   -2.02626843468681   -1.31019612626439
C        -2.61178602466910   -0.51396539907579    0.43766475683692
N        -1.62122398639411    0.06618429414560    1.14953415702274
C        -1.89847220510090    1.13754047090537    1.89573752555734
C        -3.16575074889464    1.68707221141448    1.98357392890223
C        -4.19592548694132    1.10281513412238    1.25696685790003
C        -3.91437724797687   -0.00449771393884    0.47688960214800
H        -4.70537632521917   -0.46763514481350   -0.09237939662776
H        -3.34041284077839    2.55092798158235    2.60911676106716
H        -1.05434813042462    1.55781427362237    2.42163321581831
Ir        0.42150000000000   -0.81650000000000    0.91330000000000
H         0.87260000000000   -2.23030000000000    1.54050000000000
B         0.49161497001389    0.42147294528128   -0.79176417657428
O         0.17451236559112   -0.03725037403855   -2.06260115794095
C         0.01024813039263    1.09558325593869   -2.94300858307300
C         0.48974002872677    0.74656519531020   -4.34781288334702
H         1.50870052325537    0.37009914112333   -4.32661733425942
H         0.44483380194062    1.62225669483241   -4.99571162847818
H        -0.14902332179889   -0.02895670445934   -4.76874735489459
C        -1.49369471196745    1.39844212852582   -2.96934045769702
H        -1.73132717656761    2.21141115188866   -3.65352515076541
H        -2.02379393253776    0.50174584230203   -3.28995875254660
H        -1.84055300784861    1.65366453944301   -1.96791773155153
C         0.83206314141144    2.20530108083875   -2.21104468592377
O         0.75575461588739    1.77640261489064   -0.83376595103363
C         2.31442784014238    2.18985335505146   -2.59882518625752
H         2.71933628674817    1.19100601662598   -2.44960057253347
H         2.46515161016238    2.51187080414344   -3.62836091510466
H         2.85642756475767    2.86499854386186   -1.93780374003940
C         0.28042149075762    3.62144511968243   -2.33793355849128
H        -0.72297181533958    3.69102514670527   -1.92620448467841
H         0.92003001434218    4.30538490280856   -1.78177286416429
H         0.26307633190749    3.93382817690633   -3.38208073438310
B         1.56711773983670    0.62853537938178    1.83802083158010
O         2.92300438868467    0.56786519268300    2.13225281155793
C         3.36353535507133    1.88822845100001    2.50894602182711
C         4.53201247580631    1.78783720672854    3.48080761770957
H         4.28146327462145    1.16026690868812    4.33207808492339
H         5.38732407327151    1.34402934176555    2.97335699598143
H         4.81494670300187    2.77763488367005    3.83715755242151
C         3.79938279152463    2.57472534008262    1.21053780993011
H         4.20108222728479    3.56974468408138    1.39566737380762
H         4.56347513142019    1.96288725465550    0.73427176810863
H         2.95140587169526    2.62781912252774    0.52895167539223
C         2.05257011525386    2.50583013437514    3.08842851964879
O         1.03913499422742    1.81119231289593    2.33298160878784
C         1.89343751604885    4.00761356244369    2.88901959577588
H         1.86826124796482    4.25134554512898    1.83079506970478
H         0.95616249735671    4.33650474423902    3.33604777307849
H         2.71401306252228    4.54294735999884    3.36565631557753
C         1.83135299143475    2.14223833233494    4.56081668820935
H         1.93681650896386    1.06782218037659    4.70191312839406
H         2.53204894776683    2.66289594508073    5.21036050532867
H         0.81660946286019    2.41909064399761    4.84652417788642
B         2.27820000000000   -1.33090000000000    0.17410000000000
O         2.90005219107715   -2.56042497613489    0.39447021920502
C         4.26481667901017   -2.48324150575532   -0.07673509789290
C         5.10977025097137   -2.05811435735809    1.12850105646647
H         4.75520378570218   -1.09733751560603    1.49927611121594
H         4.98007260319566   -2.79342839963437    1.92172667217637
H         6.16706785565035   -1.99857117418145    0.87602018447562
C         4.71904612934837   -3.84530543411989   -0.58694339937406
H         4.74987531664445   -4.54989691262268    0.24277869611055
H         5.71661328422763   -3.77327551966067   -1.01919087895578
H         4.03368864729018   -4.23294515797796   -1.33584429246359
C         4.16541545366729   -1.36059310228622   -1.15754812102845
O         3.07193487169645   -0.56427175303473   -0.66206954831340
C         5.40838049483914   -0.49188274285271   -1.31487361642668
H         6.26448665202705   -1.09756050597087   -1.61054631612656
H         5.23018549700796    0.25888811447878   -2.08341686535389
H         5.63660706779042    0.02269464356586   -0.38606188541890
C         3.72861268793652   -1.89955628919340   -2.52562950366741
H         2.83679916886857   -2.51534775684779   -2.41776125035572
H         3.47188953039288   -1.05790116271891   -3.16735503735984
H         4.51916020546927   -2.47610983331067   -3.00282845376154
H        -3.38369166618273   -3.98834629047299   -2.58003156003080
H        -5.19959216685105    1.50429047891820    1.29640780925661
C         0.23590000000000   -1.68139999999999    2.96030000000000
C        -0.97934439784030   -2.21123751910542    3.39939589092253
C         1.27272684629297   -1.59927596966145    3.89675916424490
C        -1.15640520312247   -2.59230383634378    4.72561135717173
H        -1.79805842503374   -2.35808854120067    2.70915925740359
C         1.07243546768616   -1.95820658482277    5.21495689841422
H         2.24799336084303   -1.26677830772669    3.57315580707497
C        -0.13844780716412   -2.46119615504546    5.66293746621724
C        -2.46957679094850   -3.16158508082032    5.16784633836550
Br        2.51056040395187   -1.80599193478010    6.44891265014647
H        -0.27733425683933   -2.76881266622641    6.68825883757087
F        -3.13122514217939   -3.80579102226697    4.18458525726641
F        -2.35471977015256   -4.04960077019926    6.17617037832527
F        -3.32841876952673   -2.21515125907341    5.61724301808845
99
 energy: -155.866826648783 gnorm: 0.037059760592 xtb: 6.4.1 (1a32961)
N        -0.95995533270392   -2.10148723136370   -0.25531975448234
C        -2.23206878834093   -1.68857034640531   -0.36536312542244
C        -3.13160934240339   -2.35493142141063   -1.20397258337039
C        -2.70923496930573   -3.45447969751195   -1.92137265724790
C        -1.39160091674673   -3.87498190708167   -1.78662713531541
C        -0.56167980697070   -3.16335011824911   -0.94592669855693
H         0.47067799071824   -3.44640627339853   -0.80382577986923
H        -1.02083066809912   -4.73359571970762   -2.32108356419134
H        -4.15003285794318   -2.01949199708202   -1.30083743492066
C        -2.60043954218545   -0.51807126091357    0.43349152330505
N        -1.61354614964610    0.05869111567417    1.14511543161403
C        -1.89585734914383    1.12460921754412    1.88607534541380
C        -3.15951073489943    1.67444754869639    1.97715559730838
C        -4.18931379770946    1.08995023131833    1.25171221735322
C        -3.90352112821281   -0.01180138319356    0.47197593129961
H        -4.69197535733194   -0.47650907344887   -0.09479059513938
H        -3.33464496840125    2.53448279265736    2.60214307010056
H        -1.05646966794015    1.55064331299376    2.41180080525348
Ir        0.42150000000000   -0.81650000000000    0.91330000000000
H         0.87260000000000   -2.23030000000000    1.54050000000000
B         0.49052740520228    0.42836741630300   -0.77147164570120
O         0.15239290140980   -0.03024343804768   -2.03400600788444
C         0.00449683189220    1.09160198605937   -2.92370141112741
C         0.48982884854384    0.73813182121351   -4.32551257494810
H         1.50500698480941    0.35802029292059   -4.30465004330609
H         0.44548817350653    1.61730427726178   -4.96306058874920
H        -0.15270392720061   -0.03096727163006   -4.74570262590496
C        -1.49737806007386    1.40455027711629   -2.96935773890984
H        -1.71584536896742    2.21416187809250   -3.65888067296640
H        -2.02715692343418    0.51071805494011   -3.29139591948443
H        -1.84675685824276    1.66309287787217   -1.97201050278320
C         0.82359741630519    2.20271091529030   -2.19713613841322
O         0.75852460905536    1.77582732698309   -0.82467371864299
C         2.30342082475921    2.19315933259811   -2.59472258145901
H         2.70621546034691    1.19620659254000   -2.43915592817988
H         2.44045798207482    2.50853194005011   -3.62496059833592
H         2.84490190993765    2.87314889293747   -1.94196266978073
C         0.26965739498705    3.61751551185607   -2.33173750213804
H        -0.72960507922706    3.69323979484902   -1.91671529328713
H         0.91462046743250    4.29991444276189   -1.78504124071846
H         0.25308036060102    3.91350964407450   -3.37717152298913
B         1.56660591739242    0.63055243792995    1.85714294786794
O         2.92067180084002    0.57780390844152    2.11926138243268
C         3.36154252153556    1.88945338107662    2.51110085521835
C         4.52837709432153    1.78715270883210    3.48510354867169
H         4.28172352881514    1.15528949739869    4.33143596734266
H         5.38138155410616    1.35037063258053    2.97350619369081
H         4.80168045540695    2.77622596963087    3.84039248985420
C         3.80269501668847    2.58789134525420    1.22132294443973
H         4.20151778553505    3.57867857603607    1.41489185469942
H         4.56594951338155    1.97878317909439    0.74499657164146
H         2.95351565868875    2.63593840074340    0.54402990196617
C         2.05315654262110    2.50706007193878    3.09010562373376
O         1.04093469542036    1.80375008516478    2.34821735402249
C         1.89570541661882    4.00835133912896    2.88708379191181
H         1.86256837205953    4.25032878474808    1.83089722185343
H         0.96361029078002    4.33370938618603    3.34060124690508
H         2.71973689816816    4.53502085117691    3.35920700146988
C         1.84131457331060    2.15366777958415    4.56678814807260
H         1.95228302650916    1.08164862857086    4.70588059956351
H         2.54375997939047    2.68012177887259    5.20418684589647
H         0.82814117893425    2.42616003481559    4.85325625209804
B         2.27820000000001   -1.33090000000000    0.17410000000000
O         2.90167684565469   -2.54703137156472    0.40600143768828
C         4.25768312626415   -2.48099985079644   -0.07597524394340
C         5.11446184627279   -2.05939779498474    1.12151425123421
H         4.75594312381713   -1.10114570778417    1.48913785414881
H         4.98644747399855   -2.79295637221618    1.91302499439034
H         6.16590028607747   -2.00132819744857    0.85928241770832
C         4.70958540061148   -3.84292103070837   -0.58908407571249
H         4.74358059809427   -4.54122293443671    0.24197597672612
H         5.70284591127502   -3.76158487027605   -1.02079472241587
H         4.02381167233605   -4.23202871237530   -1.33326767709038
C         4.15983038496997   -1.36090916210355   -1.15560088486763
O         3.05776717262458   -0.57413673766969   -0.67057929020603
C         5.40359594159558   -0.49313398059711   -1.30850316037361
H         6.25214527551503   -1.10594309851380   -1.59839038313719
H         5.22668408066108    0.25063601629098   -2.08014647359651
H         5.62842743900525    0.02378666774847   -0.38294713961711
C         3.73835947958162   -1.90351842382186   -2.52746620319539
H         2.84771006953728   -2.51680207904897   -2.41949994824983
H         3.48560622577365   -1.06360861330708   -3.16948549633764
H         4.53560984333050   -2.47529870883839   -2.99146222144555
H        -3.39066692473025   -3.97809448249861   -2.57303077842533
H        -5.19162474252160    1.48692979776632    1.29418720131557
C         0.23590000000000   -1.68139999999999    2.96029999999999
C        -0.98078428003637   -2.20964704939449    3.39776401331602
C         1.27013834507064   -1.59480360865399    3.90046888935720
C        -1.16148340169067   -2.58674523155021    4.72304710493042
H        -1.79681151648418   -2.35697250592833    2.70618970388304
C         1.06417403036436   -1.95116433692913    5.21665399208167
H         2.24461857631248   -1.26162845696562    3.57869857100496
C        -0.14675838611513   -2.45376628306557    5.66201694936722
C        -2.47453862399782   -3.15438643047141    5.16286484274176
Br        2.49998357378475   -1.79720184729630    6.45935744788141
H        -0.28827183900014   -2.75897318206304    6.68646438816292
F        -3.13419691622648   -3.79781466128400    4.18068015727806
F        -2.36202049266962   -4.03983757851582    6.17086811137980
F        -3.33259478292469   -2.20698111501946    5.60960800723176
99
 energy: -155.867397179851 gnorm: 0.036127145907 xtb: 6.4.1 (1a32961)
N        -0.95344331760168   -2.10070250077921   -0.26546745047560
C        -2.22598675740072   -1.68753876556759   -0.36947657792051
C        -3.13087081478874   -2.35252980825363   -1.20428075479388
C        -2.71407256844969   -3.45218674619522   -1.92394355650039
C        -1.39514795949441   -3.87379123809738   -1.79530141485352
C        -0.56073011784544   -3.16194557292842   -0.95850130374895
H         0.47142641654486   -3.44924525331775   -0.82128444016911
H        -1.02850100840760   -4.73265233883511   -2.33126327361368
H        -4.14900646709767   -2.01503123403175   -1.29562449420216
C        -2.59258108982959   -0.52056576066422    0.43055465460605
N        -1.60626231309431    0.05687471419171    1.14235814435461
C        -1.89121350202134    1.12178202743509    1.88251869297733
C        -3.15582809750658    1.66904996093926    1.97616985221965
C        -4.18618553944988    1.08198883658155    1.25130183969494
C        -3.89732380101631   -0.01734326088207    0.47019717190452
H        -4.68389168642241   -0.48342871443639   -0.09773825307150
H        -3.33225586220858    2.52716156801425    2.60237135172124
H        -1.05456387556869    1.55055119766097    2.41091091539171
Ir        0.42150000000000   -0.81650000000000    0.91330000000000
H         0.87260000000000   -2.23030000000000    1.54050000000000
B         0.47991649949779    0.43831918099968   -0.75412039573259
O         0.13052076110930   -0.02429949191563   -2.01158749228185
C        -0.00513651989437    1.09046812765176   -2.90700515280903
C         0.48752080372927    0.72778568845069   -4.30464095296206
H         1.50032926076520    0.34210649046746   -4.27757498169433
H         0.45036362073595    1.60713014192744   -4.94180541975613
H        -0.15780728562054   -0.03835816881995   -4.72556797383955
C        -1.50570206150020    1.41197967137001   -2.96854557276587
H        -1.70962462357061    2.22003154577846   -3.66382960507295
H        -2.03672417685152    0.51990488806080   -3.29278841479009
H        -1.86306181819595    1.67646940031028   -1.97576679747541
C         0.81507437533687    2.20317960021074   -2.18379117427863
O         0.75864911273922    1.78117373582569   -0.81254302781258
C         2.29340556339399    2.19611526744513   -2.58999316334781
H         2.69893030521527    1.20125085955594   -2.42879865116924
H         2.42137880893074    2.50439617458450   -3.62316014388153
H         2.83544983560640    2.88305968654028   -1.94526130453969
C         0.25910638691361    3.61749662730139   -2.32367919228718
H        -0.73791032906595    3.69652372588144   -1.90425472938440
H         0.90782369410137    4.30347956142952   -1.78611702846943
H         0.23772374110496    3.90253864578790   -3.37180814942567
B         1.56992889410217    0.64203996901073    1.84624738013937
O         2.92070388628549    0.58694202081014    2.10488260723169
C         3.36164168244397    1.89267420654114    2.51129296946069
C         4.52630384816804    1.78465491584399    3.48868878024722
H         4.28021314750144    1.14649977665717    4.33038155323364
H         5.38144238837731    1.35446793750820    2.97525555366235
H         4.79403840518743    2.77281165217610    3.85008872817099
C         3.80812506302539    2.60214122801065    1.22849621295708
H         4.20340736137368    3.59167520925759    1.43268151622498
H         4.57474993831782    1.99779894503063    0.75165950068094
H         2.96102371350280    2.65259416290640    0.54916199031703
C         2.05297541406912    2.50758924950088    3.09275094999915
O         1.03915717814208    1.79989296697128    2.35942662430300
C         1.89376035124724    4.00916424384585    2.88721719262181
H         1.85275793775888    4.24970553342457    1.83103377308487
H         0.96584901371879    4.33580020878985    3.34813180884198
H         2.72296625354348    4.53358050275584    3.35217011810853
C         1.85135143442151    2.16218191206672    4.57370728515200
H         1.96780511667599    1.09152332252793    4.71767636735975
H         2.55595508376581    2.69635559905115    5.20194602986009
H         0.83892942359907    2.43260507053746    4.86381633720119
B         2.27820000000002   -1.33090000000000    0.17410000000000
O         2.90339554495422   -2.53999134097244    0.41750489876421
C         4.25345351802056   -2.47971429370120   -0.07425217431853
C         5.12064022839019   -2.05931890985165    1.11715779043685
H         4.76417649589385   -1.10101013491870    1.48621390099476
H         4.99694993252373   -2.79303902967841    1.90895196305744
H         6.16936884008796   -2.00242613851810    0.84588209252205
C         4.70026394050155   -3.84368350737084   -0.58876848731231
H         4.73832686847706   -4.54037029472163    0.24322886014693
H         5.69099956216441   -3.76012205299152   -1.02497129925210
H         4.01092531183535   -4.23321017526550   -1.32927306011731
C         4.15556756293024   -1.36186334948152   -1.15621451049352
O         3.04754228743679   -0.57974058695096   -0.68062371009255
C         5.39870282538778   -0.49144328574400   -1.30400358084189
H         6.24730109199315   -1.10732301155060   -1.58633298131781
H         5.22541119731442    0.24838556081988   -2.07999640761386
H         5.61819181202756    0.02898100356721   -0.37930862155776
C         3.74692998503345   -1.90822427585523   -2.53139677351283
H         2.85685915695049   -2.52283886231068   -2.42913968434341
H         3.49921417647657   -1.06950950373050   -3.17678359521695
H         4.55068341584704   -2.47853940095358   -2.98494455754109
H        -3.39921037414478   -3.97429221362812   -2.57261698276093
H        -5.18954340163284    1.47535723312630    1.29543893539308
C         0.23590000000000   -1.68139999999997    2.96029999999999
C        -0.98249923042826   -2.20766225717718    3.39516381136361
C         1.26726642531563   -1.59118391435855    3.90395269227141
C        -1.16812913074852   -2.58017531674240    4.72093281345076
H        -1.79576767891130   -2.35690234061321    2.70078257029156
C         1.05557257344587   -1.94343546496841    5.21983278204297
H         2.24220799842226   -1.25812537249951    3.58405545331936
C        -0.15663296201202   -2.44454074661287    5.66312221633767
C        -2.48277836867796   -3.14585740519408    5.15791923838578
Br        2.48707236752313   -1.78464302165381    6.46981644176056
H        -0.30176378137387   -2.74649473206522    6.68796653764702
F        -3.14045358530285   -3.78917279608449    4.17539375957218
F        -2.37379038145700   -4.02925657761282    6.16708934413339
F        -3.34042196099358   -2.19628699986608    5.60103128563694
99
 energy: -155.868058791767 gnorm: 0.037135588424 xtb: 6.4.1 (1a32961)
N        -0.94560904229892   -2.10484405229289   -0.27695786844587
C        -2.21900850580989   -1.68939669124512   -0.37442423178099
C        -3.12986859091035   -2.35114536405123   -1.20693329826201
C        -2.71992764532279   -3.45040423656682   -1.93106471313025
C        -1.39919083858535   -3.87341356904537   -1.81156090194404
C        -0.55842007611073   -3.16371762132914   -0.97746398604109
H         0.47477368953543   -3.45429186926178   -0.85016104086736
H        -1.03771655287717   -4.73196048766576   -2.35200580502482
H        -4.14790056602833   -2.01044803857822   -1.29114178127137
C        -2.58321424712112   -0.52545302854892    0.42827771041971
N        -1.59709486269453    0.05196043732604    1.14281650913090
C        -1.88470008004192    1.11751397509026    1.88266738861565
C        -3.15090130191551    1.66199000002698    1.97757486106550
C        -4.18179955364966    1.07234837950553    1.25265722725697
C        -3.88944408021288   -0.02381610904420    0.46869065639829
H        -4.67403683182795   -0.49144046858745   -0.10121298370352
H        -3.32893124313695    2.51863014996485    2.60536951352571
H        -1.05064367083010    1.55071481305030    2.41275217254523
Ir        0.42150000000000   -0.81650000000000    0.91330000000000
H         0.87260000000000   -2.23030000000000    1.54050000000000
B         0.46873492867861    0.45283344097866   -0.73103643310721
O         0.09421993521050   -0.01329097849055   -1.97984622280828
C        -0.02421257741265    1.09200680984644   -2.88261987364539
C         0.48067459560551    0.71026468187945   -4.27205633429814
H         1.48885287239290    0.31238057372603   -4.22879751476714
H         0.46105078190727    1.58553997190733   -4.91630832958894
H        -0.16902231132134   -0.05257663016208   -4.69313250543025
C        -1.52229714536634    1.42671601797017   -2.96755312958266
H        -1.70613076659296    2.23228622816480   -3.67174394866978
H        -2.05626159878561    0.53727514720160   -3.29488545084714
H        -1.89438401783286    1.70170071440281   -1.98253987597688
C         0.80067627451026    2.20742411122193   -2.16517003241707
O         0.75761666636200    1.79116717202160   -0.79493536061294
C         2.27712836955950    2.20324447893586   -2.58261510242320
H         2.68901892395805    1.21230657875761   -2.41108512696032
H         2.39415718869490    2.49859052982810   -3.62100385230570
H         2.81998325433203    2.90248442717232   -1.95112117726286
C         0.24049737932356    3.62075179068649   -2.30989925900605
H        -0.75241447893714    3.70255646752819   -1.88040547483145
H         0.89455714610448    4.31399596639866   -1.78716438511863
H         0.20664032128129    3.89323958781326   -3.36149138193049
B         1.56974062206021    0.64310877948443    1.85688320322919
O         2.92421497633294    0.59817490839453    2.08589212097484
C         3.36267503858943    1.89778568601476    2.51158187575528
C         4.52536538109731    1.77939987307304    3.49202762428042
H         4.27938775702629    1.12896545206221    4.32494800218102