      -----------------------------------------------------------      
     |                   =====================                   |     
     |                           x T B                           |     
     |                   =====================                   |     
     |                         S. Grimme                         |     
     |          Mulliken Center for Theoretical Chemistry        |     
     |                    University of Bonn                     |     
      -----------------------------------------------------------      

   * xtb version 6.4.0 (f63f532) compiled by 'knkr256@seskscpg008.prim.scp' on 2021-04-09

   xtb is free software: you can redistribute it and/or modify it under
   the terms of the GNU Lesser General Public License as published by
   the Free Software Foundation, either version 3 of the License, or
   (at your option) any later version.
   
   xtb is distributed in the hope that it will be useful,
   but WITHOUT ANY WARRANTY; without even the implied warranty of
   MERCHANTABILITY or FITNESS FOR A PARTICULAR PURPOSE.  See the
   GNU Lesser General Public License for more details.
   
   Cite this work as:
   * C. Bannwarth, E. Caldeweyher, S. Ehlert, A. Hansen, P. Pracht,
     J. Seibert, S. Spicher, S. Grimme, WIREs Comput. Mol. Sci., 2020, 11,
     e01493. DOI: 10.1002/wcms.1493
   
   for GFN2-xTB:
   * C. Bannwarth, S. Ehlert and S. Grimme., J. Chem. Theory Comput., 2019,
     15, 1652-1671. DOI: 10.1021/acs.jctc.8b01176
   for GFN1-xTB:
   * S. Grimme, C. Bannwarth, P. Shushkov, J. Chem. Theory Comput., 2017,
     13, 1989-2009. DOI: 10.1021/acs.jctc.7b00118
   for GFN0-xTB:
   * P. Pracht, E. Caldeweyher, S. Ehlert, S. Grimme, ChemRxiv, 2019, preprint.
     DOI: 10.26434/chemrxiv.8326202.v1
   for GFN-FF:
   * S. Spicher and S. Grimme, Angew. Chem. Int. Ed., 2020, 59, 15665-15673.
     DOI: 10.1002/anie.202004239
   
   for DFT-D4:
   * E. Caldeweyher, C. Bannwarth and S. Grimme, J. Chem. Phys., 2017,
     147, 034112. DOI: 10.1063/1.4993215
   * E. Caldeweyher, S. Ehlert, A. Hansen, H. Neugebauer, S. Spicher,
     C. Bannwarth and S. Grimme, J. Chem. Phys., 2019, 150, 154122.
     DOI: 10.1063/1.5090222
   * E. Caldeweyher, J.-M. Mewes, S. Ehlert and S. Grimme, Phys. Chem. Chem. Phys.
     2020, 22, 8499-8512. DOI: 10.1039/D0CP00502A
   
   for sTDA-xTB:
   * S. Grimme and C. Bannwarth, J. Chem. Phys., 2016, 145, 054103.
     DOI: 10.1063/1.4959605
   
   in the mass-spec context:
   * V. Asgeirsson, C. Bauer and S. Grimme, Chem. Sci., 2017, 8, 4879.
     DOI: 10.1039/c7sc00601b
   * J. Koopman and S. Grimme, ACS Omega 2019, 4, 12, 15120-15133.
     DOI: 10.1021/acsomega.9b02011
   
   for metadynamics refer to:
   * S. Grimme, J. Chem. Theory Comput., 2019, 155, 2847-2862
     DOI: 10.1021/acs.jctc.9b00143
   
   for SPH calculations refer to:
   * S. Spicher and S. Grimme, J. Chem. Theory Comput., 2021, 17, 1701-1714
     DOI: 10.1021/acs.jctc.0c01306
   
   with help from (in alphabetical order)
   P. Atkinson, C. Bannwarth, F. Bohle, G. Brandenburg, E. Caldeweyher
   M. Checinski, S. Dohm, S. Ehlert, S. Ehrlich, I. Gerasimov, J. Koopman
   C. Lavinge, S. Lehtola, F. März, M. Müller, F. Musil, H. Neugebauer
   J. Pisarek, P. Pracht, J. Seibert, P. Shushkov, S. Spicher, M. Stahn
   T. Strunk, J. Stückrath, T. Rose, and J. Unsleber
   
 * started run on 2021/10/08 at 07:31:58.059     

           -------------------------------------------------
          |                Calculation Setup                |
           -------------------------------------------------

          program call               : xtb xtbopt.xyz --sp --alpb thf -P 6
          hostname                   : seskscpg010.prim.scp
          coordinate file            : xtbopt.xyz
          omp threads                :                     6
          number of atoms            :                   105
          number of electrons        :                   274
          charge                     :                     0
          spin                       :                   0.0
          first test random number   :      0.16519889097749

   ID    Z sym.   atoms
    1    7 N      1, 11
    2    6 C      2-6, 10, 12-15, 23, 24, 28, 32, 34, 38, 44, 45, 49, 53, 55,
                  59, 65, 66, 70, 74, 76, 80, 86-89, 91, 93, 96-98
    3    1 H      7-9, 16-18, 20, 25-27, 29-31, 35-37, 39-41, 46-48, 50-52,
                  56-58, 60-62, 67-69, 71-73, 77-79, 81-85, 90, 92, 94, 99-105
    4   77 Ir     19
    5    5 B      21, 42, 63
    6    8 O      22, 33, 43, 54, 64, 75
    7   35 Br     95

molecular fragmentation (1/2 indicates fragments):
111111111111111111111111111111111111111111111111111111111111111111111111
111111111111122222222222222222222
# atoms in fragment 1/2:    85    20
 fragment masses (1/2) :      730.32      198.08
CMA distance (Bohr)    :  11.181
constraining FC (au)   :  0.0500

           -------------------------------------------------
          |                 G F N 2 - x T B                 |
           -------------------------------------------------

        Reference                      10.1021/acs.jctc.8b01176
      * Hamiltonian:
        H0-scaling (s, p, d)           1.850000    2.230000    2.230000
        zeta-weighting                 0.500000
      * Dispersion:
        s8                             2.700000
        a1                             0.520000
        a2                             5.000000
        s9                             5.000000
      * Repulsion:
        kExp                           1.500000    1.000000
        rExp                           1.000000
      * Coulomb:
        alpha                          2.000000
        third order                    shell-resolved
        anisotropic                    true
        a3                             3.000000
        a5                             4.000000
        cn-shift                       1.200000
        cn-exp                         4.000000
        max-rad                        5.000000

      * Solvation model:               ALPB
        Solvent                        thf
        Parameter file                 internal GFN2-xTB/ALPB
        Dielectric constant                7.6000E+00
        Reference state                gsolv [1 M gas/solution]
        Free energy shift                  5.3248E-03 Eh       3.3414E+00 kcal/mol
        Temperature                        2.9815E+02 K
        Density                            8.8300E-01 kg/L
        Solvent mass                       7.2106E+01 g/mol
        Interaction kernel             P16
        Born radius scaling (c1)           1.7311E+00
        Born radii integrator          GBOBC
        Born offset                        0.0000E+00 a0       0.0000E+00 AA
        H-bond correction              true
        Ion screening                  false
        Surface tension                    1.0000E-05 Eh       1.5569E+01 dyn/cm
        Grid points                               230 per atom
q/qsh data taken from xtbrestart
CAMM data taken from xtbrestart

          ...................................................
          :                      SETUP                      :
          :.................................................:
          :  # basis functions                 267          :
          :  # atomic orbitals                 265          :
          :  # shells                          157          :
          :  # electrons                       274          :
          :  max. iterations                   250          :
          :  Hamiltonian                  GFN2-xTB          :
          :  restarted?                       true          :
          :  GBSA solvation                   true          :
          :  PC potential                    false          :
          :  electronic temp.          300.0000000     K    :
          :  accuracy                    1.0000000          :
          :  -> integral cutoff          0.2500000E+02      :
          :  -> integral neglect         0.1000000E-07      :
          :  -> SCF convergence          0.1000000E-05 Eh   :
          :  -> wf. convergence          0.1000000E-03 e    :
          :  Broyden damping             0.4000000          :
          ...................................................

 iter      E             dE          RMSdq      gap      omega  full diag
   1   -151.4371748 -0.151437E+03  0.619E-05    0.91       0.0  T
   2   -151.4371748  0.231367E-08  0.160E-04    0.91      60.8  T
   3   -151.4371748 -0.268901E-08  0.148E-05    0.91     658.4  T

   *** convergence criteria satisfied after 3 iterations ***

         #    Occupation            Energy/Eh            Energy/eV
      -------------------------------------------------------------
         1        2.0000           -0.8222904             -22.3757
       ...           ...                  ...                  ...
       131        2.0000           -0.3811577             -10.3718
       132        2.0000           -0.3503493              -9.5335
       133        2.0000           -0.3349783              -9.1152
       134        2.0000           -0.3262053              -8.8765
       135        2.0000           -0.3223123              -8.7706
       136        2.0000           -0.3147214              -8.5640
       137        2.0000           -0.3121369              -8.4937 (HOMO)
       138                         -0.2787028              -7.5839 (LUMO)
       139                         -0.2510083              -6.8303
       140                         -0.2483318              -6.7575
       141                         -0.2243994              -6.1062
       142                         -0.2213498              -6.0232
       ...                                ...                  ...
       265                          3.7621108             102.3722
      -------------------------------------------------------------
                  HL-Gap            0.0334341 Eh            0.9098 eV
             Fermi-level           -0.2953896 Eh           -8.0380 eV

 SCC (total)                   0 d,  0 h,  0 min,  0.113 sec
 SCC setup                      ...        0 min,  0.002 sec (  1.954%)
 Dispersion                     ...        0 min,  0.002 sec (  2.152%)
 classical contributions        ...        0 min,  0.000 sec (  0.146%)
 integral evaluation            ...        0 min,  0.031 sec ( 27.265%)
 iterations                     ...        0 min,  0.034 sec ( 30.432%)
 molecular gradient             ...        0 min,  0.042 sec ( 37.442%)
 printout                       ...        0 min,  0.001 sec (  0.563%)

         :::::::::::::::::::::::::::::::::::::::::::::::::::::
         ::                     SUMMARY                     ::
         :::::::::::::::::::::::::::::::::::::::::::::::::::::
         :: total energy            -149.518027357900 Eh    ::
         :: total w/o Gsasa/hb      -149.475348118212 Eh    ::
         :: gradient norm              0.033321995157 Eh/a0 ::
         :: HOMO-LUMO gap              0.909788008050 eV    ::
         ::.................................................::
         :: SCC energy              -151.437174807690 Eh    ::
         :: -> isotropic ES            0.240522195520 Eh    ::
         :: -> anisotropic ES          0.013320729967 Eh    ::
         :: -> anisotropic XC          0.046590736155 Eh    ::
         :: -> dispersion             -0.146034148550 Eh    ::
         :: -> Gsolv                  -0.052005187197 Eh    ::
         ::    -> Gelec               -0.009325947508 Eh    ::
         ::    -> Gsasa               -0.045419097141 Eh    ::
         ::    -> Ghb                 -0.002584957992 Eh    ::
         ::    -> Gshift               0.005324815444 Eh    ::
         :: repulsion energy           1.910748264858 Eh    ::
         :: add. restraining           0.000000000000 Eh    ::
         :: total charge               0.000000000001 e     ::
         :::::::::::::::::::::::::::::::::::::::::::::::::::::

           -------------------------------------------------
          |                Property Printout                |
           -------------------------------------------------

    * Orbital Energies and Occupations

         #    Occupation            Energy/Eh            Energy/eV
      -------------------------------------------------------------
         1        2.0000           -0.8222904             -22.3757
       ...           ...                  ...                  ...
       125        2.0000           -0.3953848             -10.7590
       126        2.0000           -0.3915825             -10.6555
       127        2.0000           -0.3897865             -10.6066
       128        2.0000           -0.3888714             -10.5817
       129        2.0000           -0.3846444             -10.4667
       130        2.0000           -0.3837920             -10.4435
       131        2.0000           -0.3811577             -10.3718
       132        2.0000           -0.3503493              -9.5335
       133        2.0000           -0.3349783              -9.1152
       134        2.0000           -0.3262053              -8.8765
       135        2.0000           -0.3223123              -8.7706
       136        2.0000           -0.3147214              -8.5640
       137        2.0000           -0.3121369              -8.4937 (HOMO)
       138                         -0.2787028              -7.5839 (LUMO)
       139                         -0.2510083              -6.8303
       140                         -0.2483318              -6.7575
       141                         -0.2243994              -6.1062
       142                         -0.2213498              -6.0232
       143                         -0.2075401              -5.6475
       144                         -0.1986854              -5.4065
       145                         -0.1841759              -5.0117
       146                         -0.1519949              -4.1360
       147                         -0.1291017              -3.5130
       148                         -0.1261116              -3.4317
       ...                                ...                  ...
       265                          3.7621108             102.3722
      -------------------------------------------------------------
                  HL-Gap            0.0334341 Eh            0.9098 eV
             Fermi-level           -0.2953896 Eh           -8.0380 eV

     #   Z          covCN         q      C6AA      α(0)
     1   7 N        2.549    -0.121    23.669     7.225
     2   6 C        2.956     0.078    26.251     8.404
     3   6 C        2.918    -0.042    29.033     8.836
     4   6 C        2.924    -0.022    28.548     8.762
     5   6 C        2.915    -0.043    29.062     8.840
     6   6 C        2.893     0.048    26.914     8.506
     7   1 H        0.926     0.052     2.291     2.367
     8   1 H        0.926     0.057     2.237     2.339
     9   1 H        0.926     0.048     2.349     2.397
    10   6 C        2.954     0.075    26.334     8.417
    11   7 N        2.566    -0.124    23.713     7.232
    12   6 C        2.890     0.043    27.035     8.525
    13   6 C        2.915    -0.044    29.101     8.846
    14   6 C        2.922    -0.023    28.588     8.768
    15   6 C        2.918    -0.045    29.115     8.848
    16   1 H        0.926     0.048     2.346     2.395
    17   1 H        0.926     0.053     2.286     2.364
    18   1 H        0.926     0.073     2.051     2.240
    19  77 Ir       5.950    -0.155   388.106    36.431
    20   1 H        0.977     0.087     1.904     2.156
    21   5 B        2.627     0.402    16.046     6.771
    22   8 O        1.638    -0.411    21.081     6.198
    23   6 C        3.835     0.131    18.441     6.110
    24   6 C        3.755    -0.121    22.880     6.820
    25   1 H        0.925     0.053     2.279     2.361
    26   1 H        0.925     0.045     2.379     2.412
    27   1 H        0.925     0.051     2.311     2.377
    28   6 C        3.754    -0.109    22.644     6.785
    29   1 H        0.925     0.048     2.349     2.397
    30   1 H        0.925     0.041     2.433     2.439
    31   1 H        0.925     0.029     2.606     2.524
    32   6 C        3.839     0.131    18.433     6.108
    33   8 O        1.637    -0.402    20.897     6.171
    34   6 C        3.755    -0.119    22.836     6.814
    35   1 H        0.925     0.048     2.349     2.397
    36   1 H        0.925     0.047     2.361     2.403
    37   1 H        0.925     0.050     2.325     2.384
    38   6 C        3.754    -0.119    22.843     6.815
    39   1 H        0.925     0.047     2.352     2.398
    40   1 H        0.925     0.053     2.287     2.365
    41   1 H        0.925     0.045     2.379     2.412
    42   5 B        2.622     0.406    16.029     6.772
    43   8 O        1.637    -0.383    20.525     6.115
    44   6 C        3.835     0.129    18.461     6.113
    45   6 C        3.755    -0.125    22.946     6.830
    46   1 H        0.925     0.055     2.259     2.350
    47   1 H        0.925     0.056     2.246     2.344
    48   1 H        0.925     0.050     2.325     2.385
    49   6 C        3.755    -0.121    22.878     6.820
    50   1 H        0.925     0.049     2.338     2.391
    51   1 H        0.925     0.045     2.385     2.415
    52   1 H        0.925     0.053     2.286     2.364
    53   6 C        3.830     0.128    18.480     6.116
    54   8 O        1.637    -0.385    20.566     6.122
    55   6 C        3.755    -0.123    22.920     6.826
    56   1 H        0.925     0.053     2.279     2.361
    57   1 H        0.925     0.054     2.276     2.359
    58   1 H        0.925     0.048     2.340     2.392
    59   6 C        3.755    -0.119    22.829     6.813
    60   1 H        0.925     0.043     2.408     2.427
    61   1 H        0.925     0.053     2.284     2.363
    62   1 H        0.925     0.049     2.339     2.391
    63   5 B        2.625     0.401    16.075     6.778
    64   8 O        1.637    -0.378    20.440     6.103
    65   6 C        3.832     0.126    18.519     6.123
    66   6 C        3.755    -0.128    23.022     6.841
    67   1 H        0.925     0.058     2.224     2.332
    68   1 H        0.925     0.054     2.273     2.357
    69   1 H        0.925     0.049     2.333     2.389
    70   6 C        3.755    -0.129    23.026     6.842
    71   1 H        0.925     0.060     2.199     2.319
    72   1 H        0.925     0.050     2.314     2.379
    73   1 H        0.925     0.052     2.299     2.371
    74   6 C        3.828     0.127    18.503     6.121
    75   8 O        1.637    -0.383    20.526     6.115
    76   6 C        3.755    -0.123    22.924     6.827
    77   1 H        0.925     0.051     2.313     2.379
    78   1 H        0.925     0.053     2.281     2.362
    79   1 H        0.925     0.054     2.272     2.357
    80   6 C        3.755    -0.123    22.906     6.824
    81   1 H        0.925     0.040     2.451     2.448
    82   1 H        0.925     0.051     2.308     2.376
    83   1 H        0.925     0.054     2.266     2.354
    84   1 H        0.926     0.054     2.269     2.355
    85   1 H        0.926     0.052     2.293     2.368
    86   6 C        2.831    -0.026    28.652     8.771
    87   6 C        2.921    -0.035    28.873     8.812
    88   6 C        3.015    -0.044    29.070     8.844
    89   6 C        2.931    -0.042    29.054     8.840
    90   1 H        0.926     0.030     2.592     2.518
    91   6 C        2.922     0.063    26.585     8.455
    92   1 H        0.926     0.053     2.281     2.362
    93   6 C        3.019    -0.004    28.096     8.695
    94   1 H        0.926     0.041     2.435     2.440
    95  35 Br       1.067    -0.210   190.896    22.277
    96   6 C        3.855    -0.012    20.746     6.478
    97   6 C        3.755    -0.108    22.626     6.783
    98   6 C        3.756    -0.106    22.577     6.775
    99   1 H        0.924     0.049     2.332     2.388
   100   1 H        0.925     0.039     2.465     2.455
   101   1 H        0.925     0.036     2.505     2.475
   102   1 H        0.925     0.043     2.410     2.428
   103   1 H        0.925     0.038     2.481     2.463
   104   1 H        0.925     0.044     2.393     2.419
   105   1 H        0.925     0.035     2.512     2.478

 Mol. C6AA /au·bohr⁶  :     120873.413481
 Mol. C8AA /au·bohr⁸  :    3335792.288388
 Mol. α(0) /au        :        539.304692


Wiberg/Mayer (AO) data.
largest (>0.10) Wiberg bond orders for each atom

 ---------------------------------------------------------------------------
     #   Z sym  total        # sym  WBO       # sym  WBO       # sym  WBO
 ---------------------------------------------------------------------------
     1   7 N    3.400 --     6 C    1.387     2 C    1.311    19 Ir   0.443
     2   6 C    3.978 --     3 C    1.351     1 N    1.311    10 C    1.089
     3   6 C    3.988 --     4 C    1.481     2 C    1.351     9 H    0.962
                             6 C    0.106
     4   6 C    3.984 --     3 C    1.481     5 C    1.384    84 H    0.969
     5   6 C    3.980 --     6 C    1.460     4 C    1.384     8 H    0.968
     6   6 C    3.978 --     5 C    1.460     1 N    1.387     7 H    0.957
                             3 C    0.106
     7   1 H    0.997 --     6 C    0.957
     8   1 H    0.996 --     5 C    0.968
     9   1 H    0.997 --     3 C    0.962
    10   6 C    3.979 --    15 C    1.354    11 N    1.306     2 C    1.089
    11   7 N    3.414 --    12 C    1.387    10 C    1.306    19 Ir   0.441
    12   6 C    3.974 --    13 C    1.457    11 N    1.387    18 H    0.949
                            15 C    0.105
    13   6 C    3.981 --    12 C    1.457    14 C    1.386    17 H    0.969
    14   6 C    3.982 --    15 C    1.478    13 C    1.386    85 H    0.969
    15   6 C    3.989 --    14 C    1.478    10 C    1.354    16 H    0.962
                            12 C    0.105
    16   1 H    0.997 --    15 C    0.962
    17   1 H    0.997 --    13 C    0.969
    18   1 H    0.994 --    12 C    0.949
    19  77 Ir   5.178 --    63 B    0.862    42 B    0.851    21 B    0.724
                            86 C    0.594    20 H    0.538     1 N    0.443
                            11 N    0.441
    20   1 H    0.989 --    19 Ir   0.538    86 C    0.342
    21   5 B    3.268 --    33 O    1.114    22 O    1.088    19 Ir   0.724
    22   8 O    2.187 --    21 B    1.088    23 C    0.942
    23   6 C    3.943 --    24 C    0.997    28 C    0.990    22 O    0.942
                            32 C    0.941
    24   6 C    3.994 --    23 C    0.997    26 H    0.984    27 H    0.983
                            25 H    0.983
    25   1 H    0.997 --    24 C    0.983
    26   1 H    0.997 --    24 C    0.984
    27   1 H    0.997 --    24 C    0.983
    28   6 C    3.997 --    23 C    0.990    31 H    0.985    30 H    0.984
                            29 H    0.984
    29   1 H    0.997 --    28 C    0.984
    30   1 H    0.998 --    28 C    0.984
    31   1 H    0.999 --    28 C    0.985
    32   6 C    3.940 --    38 C    0.997    34 C    0.991    23 C    0.941
                            33 O    0.939
    33   8 O    2.205 --    21 B    1.114    32 C    0.939
    34   6 C    3.994 --    32 C    0.991    36 H    0.984    35 H    0.983
                            37 H    0.982
    35   1 H    0.998 --    34 C    0.983
    36   1 H    0.997 --    34 C    0.984
    37   1 H    0.997 --    34 C    0.982
    38   6 C    3.994 --    32 C    0.997    41 H    0.984    39 H    0.983
                            40 H    0.983
    39   1 H    0.998 --    38 C    0.983
    40   1 H    0.997 --    38 C    0.983
    41   1 H    0.997 --    38 C    0.984
    42   5 B    3.335 --    43 O    1.120    54 O    1.109    19 Ir   0.851
    43   8 O    2.228 --    42 B    1.120    44 C    0.935
    44   6 C    3.936 --    45 C    0.997    49 C    0.991    53 C    0.938
                            43 O    0.935
    45   6 C    3.992 --    44 C    0.997    48 H    0.983    46 H    0.982
                            47 H    0.981
    46   1 H    0.997 --    45 C    0.982
    47   1 H    0.997 --    45 C    0.981
    48   1 H    0.996 --    45 C    0.983
    49   6 C    3.994 --    44 C    0.991    50 H    0.983    51 H    0.983
                            52 H    0.979
    50   1 H    0.997 --    49 C    0.983
    51   1 H    0.998 --    49 C    0.983
    52   1 H    0.997 --    49 C    0.979
    53   6 C    3.937 --    55 C    0.996    59 C    0.992    44 C    0.938
                            54 O    0.934
    54   8 O    2.225 --    42 B    1.109    53 C    0.934
    55   6 C    3.993 --    53 C    0.996    58 H    0.983    57 H    0.983
                            56 H    0.982
    56   1 H    0.997 --    55 C    0.982
    57   1 H    0.997 --    55 C    0.983
    58   1 H    0.996 --    55 C    0.983
    59   6 C    3.994 --    53 C    0.992    62 H    0.983    61 H    0.983
                            60 H    0.982
    60   1 H    0.998 --    59 C    0.982
    61   1 H    0.996 --    59 C    0.983
    62   1 H    0.997 --    59 C    0.983
    63   5 B    3.359 --    75 O    1.116    64 O    1.114    19 Ir   0.862
    64   8 O    2.229 --    63 B    1.114    65 C    0.938
    65   6 C    3.937 --    70 C    0.996    66 C    0.991    64 O    0.938
                            74 C    0.937
    66   6 C    3.992 --    65 C    0.991    69 H    0.983    68 H    0.982
                            67 H    0.978
    67   1 H    0.997 --    66 C    0.978
    68   1 H    0.997 --    66 C    0.982
    69   1 H    0.997 --    66 C    0.983
    70   6 C    3.992 --    65 C    0.996    72 H    0.983    73 H    0.982
                            71 H    0.982
    71   1 H    0.996 --    70 C    0.982
    72   1 H    0.996 --    70 C    0.983
    73   1 H    0.997 --    70 C    0.982
    74   6 C    3.935 --    76 C    0.996    80 C    0.991    65 C    0.937
                            75 O    0.936
    75   8 O    2.231 --    63 B    1.116    74 C    0.936
    76   6 C    3.993 --    74 C    0.996    77 H    0.983    78 H    0.982
                            79 H    0.982
    77   1 H    0.996 --    76 C    0.983
    78   1 H    0.997 --    76 C    0.982
    79   1 H    0.997 --    76 C    0.982
    80   6 C    3.995 --    74 C    0.991    81 H    0.984    83 H    0.983
                            82 H    0.983
    81   1 H    0.998 --    80 C    0.984
    82   1 H    0.997 --    80 C    0.983
    83   1 H    0.996 --    80 C    0.983
    84   1 H    0.996 --     4 C    0.969
    85   1 H    0.996 --    14 C    0.969
    86   6 C    3.946 --    87 C    1.378    88 C    1.372    19 Ir   0.594
                            20 H    0.342
    87   6 C    3.990 --    89 C    1.447    86 C    1.378    90 H    0.964
    88   6 C    3.987 --    91 C    1.430    86 C    1.372    92 H    0.958
                            89 C    0.103
    89   6 C    3.987 --    87 C    1.447    93 C    1.393    94 H    0.962
                            88 C    0.103
    90   1 H    0.998 --    87 C    0.964
    91   6 C    3.921 --    88 C    1.430    93 C    1.379    95 Br   0.942
    92   1 H    0.996 --    88 C    0.958
    93   6 C    3.980 --    89 C    1.393    91 C    1.379    96 C    1.000
    94   1 H    0.998 --    89 C    0.962
    95  35 Br   1.090 --    91 C    0.942
    96   6 C    3.993 --    93 C    1.000    97 C    1.000    98 C    0.993
                            99 H    0.958
    97   6 C    3.995 --    96 C    1.000   101 H    0.987   102 H    0.986
                           100 H    0.984
    98   6 C    3.994 --    96 C    0.993   105 H    0.987   103 H    0.986
                           104 H    0.985
    99   1 H    0.997 --    96 C    0.958
   100   1 H    0.998 --    97 C    0.984
   101   1 H    0.999 --    97 C    0.987
   102   1 H    0.997 --    97 C    0.986
   103   1 H    0.999 --    98 C    0.986
   104   1 H    0.997 --    98 C    0.985
   105   1 H    0.999 --    98 C    0.987
 ---------------------------------------------------------------------------

Topologies differ in total number of bonds
Writing topology from bond orders to xtbtopo.mol

molecular dipole:
                 x           y           z       tot (Debye)
 q only:       -0.951       0.363      -1.603
   full:       -2.486       0.568      -2.626       9.304
molecular quadrupole (traceless):
                xx          xy          yy          xz          yz          zz
 q only:       14.017       5.730       4.779     -16.698      12.612     -18.796
  q+dip:       20.007       8.771      10.003     -28.470      17.483     -30.010
   full:       17.282       9.437      13.326     -29.713      14.793     -30.608


           -------------------------------------------------
          | TOTAL ENERGY             -149.518027357900 Eh   |
          | GRADIENT NORM               0.033321995157 Eh/α |
          | HOMO-LUMO GAP               0.909788008050 eV   |
           -------------------------------------------------

------------------------------------------------------------------------
 * finished run on 2021/10/08 at 07:31:58.217     
------------------------------------------------------------------------
 total:
 * wall-time:     0 d,  0 h,  0 min,  0.158 sec
 *  cpu-time:     0 d,  0 h,  0 min,  0.926 sec
 * ratio c/w:     5.850 speedup
 SCF:
 * wall-time:     0 d,  0 h,  0 min,  0.114 sec
 *  cpu-time:     0 d,  0 h,  0 min,  0.681 sec
 * ratio c/w:     5.976 speedup

