105
 energy: -149.503423054231 gnorm: 0.074779388799 xtb: 6.4.0 (f63f532)
N        -0.96510000000000   -2.11530000000000   -0.24090000000000
C        -2.24700000000000   -1.69840000000000   -0.36220000000000
C        -3.14040000000000   -2.36820000000000   -1.21200000000000
C        -2.70220000000000   -3.47560000000000   -1.93050000000000
C        -1.37780000000000   -3.89880000000000   -1.78760000000000
C        -0.54290000000000   -3.18670000000000   -0.93510000000000
H         0.49810000000000   -3.45630000000000   -0.78940000000000
H        -0.99570000000000   -4.76030000000000   -2.32770000000000
H        -4.16500000000000   -2.02890000000000   -1.31830000000000
C        -2.62130000000000   -0.50950000000000    0.44100000000000
N        -1.62600000000000    0.07330000000000    1.16020000000000
C        -1.89680000000000    1.15240000000000    1.91690000000000
C        -3.17229999999999    1.70330000000000    1.99650000000000
C        -4.20510000000000    1.11740000000000    1.26270000000000
C        -3.92610000000000    0.00250000000000    0.47820000000000
H        -4.71960000000000   -0.46420000000000   -0.09520000000000
H        -3.34630000000000    2.57510000000000    2.62070000000000
H        -1.04450000000000    1.57420000000000    2.43690000000000
Ir        0.42150000000000   -0.81650000000000    0.91330000000000
H         0.87260000000000   -2.23030000000000    1.54050000000000
B         0.50670000000000    0.41560000000000   -0.81540000000000
O         0.19500000000000   -0.04700000000000   -2.09150000000000
C         0.00650000000000    1.10039999999999   -2.95430000000000
C         0.49020000000000    0.74740000000000   -4.35780000000000
H         1.51610000000000    0.37380000000000   -4.33700000000000
H         0.44730000000000    1.62240000000000   -5.01670000000000
H        -0.14740000000000   -0.03390000000000   -4.78430000000000
C        -1.50120000000000    1.39560000000000   -2.96670000000000
H        -1.75370000000000    2.21460000000000   -3.64850000000000
H        -2.03200000000000    0.49450000000000   -3.28930000000000
H        -1.85170000000000    1.65210000000000   -1.96220000000000
C         0.84230000000000    2.20670000000000   -2.22040000000000
O         0.75200000000000    1.78260000000000   -0.83690000000000
C         2.32930000000000    2.18620000000000   -2.59900000000000
H         2.74130000000000    1.18500000000000   -2.45750000000000
H         2.48870000000000    2.51300000000000   -3.63180000000000
H         2.87200000000000    2.86270000000000   -1.93200000000000
C         0.28440000000000    3.62290000000000   -2.33660000000000
H        -0.72650000000000    3.69040000000000   -1.92910000000000
H         0.92130000000000    4.31480000000000   -1.77610000000000
H         0.26430000000000    3.94810000000000   -3.38320000000000
B         1.56300000000000    0.60960000000000    1.84840000000000
O         2.92780000000000    0.55230000000000    2.15020000000000
C         3.36330000000000    1.88660000000000    2.50260000000000
C         4.53140000000000    1.78590000000000    3.47740000000000
H         4.27910000000000    1.16090000000000    4.33690000000000
H         5.39390000000000    1.33790000000000    2.97340000000000
H         4.82390000000000    2.77870000000000    3.83820000000000
C         3.79700000000000    2.56850000000000    1.19670000000000
H         4.20020000000000    3.57090000000000    1.37680000000000
H         4.56740000000000    1.95560000000000    0.72110000000000
H         2.95240000000000    2.63260000000000    0.50540000000000
C         2.05040000000000    2.50090000000000    3.09320000000000
O         1.03750000000000    1.81620000000000    2.31910000000000
C         1.89100000000000    4.00450000000000    2.88650000000000
H         1.87290000000000    4.25440000000000    1.82410000000000
H         0.94940000000000    4.34260000000000    3.33170000000000
H         2.71080000000000    4.55150000000000    3.36630000000000
C         1.82470000000000    2.13200000000000    4.56520000000000
H         1.92610000000000    1.05330000000000    4.71320000000000
H         2.52610000000000    2.65280000000000    5.22540000000000
H         0.80630000000000    2.41580000000000    4.84900000000000
B         2.27820000000000   -1.33090000000000    0.17410000000000
O         2.89460000000000   -2.57740000000000    0.38450000000000
C         4.26930000000000   -2.48200000000000   -0.07210000000000
C         5.10900000000000   -2.05380000000000    1.14010000000000
H         4.76350000000000   -1.08740000000000    1.51750000000000
H         4.98050000000000   -2.79470000000000    1.93590000000000
H         6.17420000000000   -1.99290000000000    0.89300000000000
C         4.71950000000000   -3.84660000000000   -0.58470000000000
H         4.75280000000000   -4.56130000000000    0.24420000000000
H         5.72330000000000   -3.78370000000000   -1.02010000000000
H         4.03500000000000   -4.23600000000000   -1.34170000000000
C         4.16440000000000   -1.36220000000000   -1.16300000000000
O         3.08520000000000   -0.55030000000000   -0.65400000000000
C         5.40720000000000   -0.48870000000000   -1.31550000000000
H         6.27320000000000   -1.09010000000000   -1.61530000000000
H         5.23300000000000    0.26930000000000   -2.08590000000000
H         5.64270000000000    0.02650000000000   -0.38240000000000
C         3.71800000000000   -1.89830000000000   -2.53110000000000
H         2.82530000000000   -2.52160000000000   -2.42740000000000
H         3.46090000000000   -1.05250000000000   -3.17550000000000
H         4.50570000000000   -2.48290000000000   -3.01790000000000
H        -3.38500000000000   -4.00130000000000   -2.59310000000000
H        -5.21400000000000    1.52080000000000    1.29960000000000
C         0.23590000000000   -1.68140000000000    2.96030000000000
C        -1.00076399111885   -2.13085660435669    3.41516522960578
C         1.29762528520802   -1.74947777910467    3.86256187871150
C        -1.16774189445381   -2.63023822464175    4.70046742456154
H        -1.86268969313323   -2.12323493795218    2.75898328133954
C         1.12357152138326   -2.26118795715416    5.14004831179154
H         2.28422132326629   -1.43628180510296    3.54321414978570
C        -0.10182185978361   -2.75679726682231    5.59245384993958
H        -2.14878809637391   -2.97139994078093    5.00398191982534
Br        2.67314219636849   -2.33521418637708    6.25412763634052
C        -0.24487326055025   -3.42007532187940    6.94886366083040
C        -0.50495440374840   -2.36696257258844    8.02964907266403
C        -1.33299843672454   -4.49791038855330    6.97363128002370
H         0.70835931409771   -3.91060008720016    7.17710742101100
H        -1.43424964958699   -1.83315852331301    7.82538577729021
H         0.31074390169530   -1.64427588399809    8.06680540014317
H        -0.58196494662683   -2.84601518505417    9.00637218487583
H        -2.32864351598871   -4.05528968626230    6.94633875653099
H        -1.24781902749128   -5.07876551626848    7.89301002102014
H        -1.22346034835075   -5.17615295842897    6.12646192160936
105
 energy: -149.509790975745 gnorm: 0.045959137300 xtb: 6.4.0 (f63f532)
N        -0.96151258112528   -2.09934817257019   -0.25239504755646
C        -2.23961918024467   -1.68936046217424   -0.36544304212586
C        -3.13469705544717   -2.36168145041115   -1.20641204434372
C        -2.70439783662801   -3.46344922207006   -1.92173982017966
C        -1.38450575078074   -3.88224361267092   -1.78254302860768
C        -0.55407455693278   -3.16741619794129   -0.94124601641069
H         0.47959262362830   -3.44756134134510   -0.79152257085590
H        -1.00815535290898   -4.74241899483467   -2.31749133192006
H        -4.15517990265618   -2.02629008387923   -1.31039459858203
C        -2.61092324662981   -0.51176702961272    0.43385790495291
N        -1.61827460279370    0.06924044648525    1.14433702537271
C        -1.89703223397411    1.13951354063992    1.89258047743937
C        -3.16441570978642    1.68766981543556    1.98200868530566
C        -4.19573464165100    1.10349299151139    1.25542650761317
C        -3.91430346408699   -0.00298711710729    0.47502250757698
H        -4.70572395354983   -0.46665809140371   -0.09352771472242
H        -3.33932262433720    2.55075408357835    2.60884542482589
H        -1.05405088199916    1.55769929733728    2.42180496881971
Ir        0.42150000000000   -0.81650000000000    0.91330000000000
H         0.87260000000000   -2.23030000000000    1.54050000000000
B         0.49256085768196    0.42328501440669   -0.79079428750799
O         0.17539804908649   -0.03574812626592   -2.06261300806773
C         0.01082049627719    1.09622500560297   -2.94327832888182
C         0.48992971618959    0.74674570183910   -4.34816277783658
H         1.50890073854182    0.37003146380167   -4.32692801259015
H         0.44516654496304    1.62228058275829   -4.99647010082400
H        -0.14888351489695   -0.02907851069925   -4.76875399863441
C        -1.49325918300261    1.39884352095090   -2.96985469563718
H        -1.73121934274880    2.21176082417587   -3.65416578877724
H        -2.02337813730143    0.50186458007525   -3.29002656834274
H        -1.84010508541102    1.65405308179407   -1.96836342012505
C         0.83229275083929    2.20631170541888   -2.21207371120561
O         0.75587074493924    1.77920972701629   -0.83487331867723
C         2.31471758465850    2.19039950213767   -2.59979640166602
H         2.71937494361744    1.19141749764586   -2.45003308892555
H         2.46607315533667    2.51182451802243   -3.62955190124560
H         2.85701783208683    2.86531001200245   -1.93859176581135
C         0.28071753875114    3.62238133607890   -2.33938285739433
H        -0.72264613640461    3.69170936823102   -1.92731744630830
H         0.92036336090503    4.30623190941855   -1.78296940287243
H         0.26328433486976    3.93460110258047   -3.38366890329240
B         1.56448452891905    0.61802797501514    1.85492452093567
O         2.92421406571244    0.56502776005521    2.13763289019918
C         3.36315096933271    1.88660530725504    2.50977151864629
C         4.53275413112636    1.78884955181653    3.48067002895021
H         4.28221555807971    1.16105087279360    4.33174622490447
H         5.38805710745245    1.34456121234774    2.97341346692154
H         4.81532532658069    2.77906463026863    3.83671009881537
C         3.79868820237033    2.57340564905824    1.21105215015264
H         4.20017905074201    3.56889804799850    1.39550148762947
H         4.56305669693018    1.96206814615098    0.73433266170149
H         2.95065034697729    2.62619496395273    0.52948004813311
C         2.05292166324360    2.50505797586457    3.08943156902433
O         1.03987200350602    1.80921820868150    2.33616274364125
C         1.89391798040371    4.00702902445283    2.88905147362520
H         1.86864466702258    4.25049883812387    1.83069950032730
H         0.95656019483153    4.33629049919941    3.33580016114857
H         2.71457577946764    4.54289880206120    3.36524968694241
C         1.83171643332421    2.14127331113237    4.56171880250471
H         1.93566039312134    1.06603398210991    4.70072152157799
H         2.53290857157272    2.66182725744931    5.21122349630338
H         0.81689350443779    2.41846006448285    4.84677358178253
B         2.27820000000000   -1.33090000000000    0.17410000000000
O         2.90069603969730   -2.56150075106981    0.39185125723192
C         4.26523236803633   -2.48350572257984   -0.07747607729791
C         5.10990417771869   -2.05861205252392    1.12811046867461
H         4.75466246543107   -1.09825058915354    1.49957305671797
H         4.97969030378078   -2.79396061435411    1.92124483880570
H         6.16754298669684   -1.99862120147995    0.87656268733142
C         4.71971132653155   -3.84570193689846   -0.58721988466133
H         4.74995407443800   -4.54991134621023    0.24295090767844
H         5.71746202735336   -3.77386849010497   -1.01925821254784
H         4.03411820943407   -4.23340909028607   -1.33597841503262
C         4.16587209462990   -1.36051795138206   -1.15762898995071
O         3.07329728217190   -0.56384817214599   -0.66221211304622
C         5.40917146330028   -0.49231380067184   -1.31517702572865
H         6.26527768089114   -1.09827015029599   -1.61062813809652
H         5.23105774082518    0.25870156707858   -2.08365700248594
H         5.63717383367646    0.02221056380499   -0.38617915794758
C         3.72908235676653   -1.89981556958521   -2.52569847996508
H         2.83708689860787   -2.51543295665258   -2.41735046348906
H         3.47210701446441   -1.05829228290314   -3.16768996065226
H         4.51942859679269   -2.47681821197372   -3.00291795478333
H        -3.38370984181802   -3.98836769517160   -2.57950481065600
H        -5.19970152238633    1.50461252424129    1.29592497666605
C         0.23590000000000   -1.68140000000001    2.96030000000000
C        -1.00086834867833   -2.13258642722150    3.41661830880374
C         1.29553319393500   -1.74813474632832    3.86688454270178
C        -1.16604099735899   -2.62984210086436    4.70017216026571
H        -1.86159675048749   -2.12727452045593    2.76124687618742
C         1.11849904203990   -2.25849175052391    5.13945532316230
H         2.28055535483093   -1.43534026373169    3.55028140153407
C        -0.10341688108692   -2.75428840581009    5.59052687860842
H        -2.14469338945730   -2.97159480245450    5.00309984225139
Br        2.67147904456349   -2.32864693294455    6.25809106126458
C        -0.24674496155994   -3.41496228003422    6.94426085176290
C        -0.50774455042327   -2.36335940325415    8.02669030416188
C        -1.33102855391663   -4.49385309015579    6.97250717819207
H         0.70691159778640   -3.90454678592036    7.17428075334164
H        -1.43570064603038   -1.83149361935174    7.82370188681310
H         0.30527192714258   -1.64098522320416    8.06498011341723
H        -0.58433157686371   -2.84173993324145    9.00123654699126
H        -2.32593889833460   -4.05468123880912    6.94518454726239
H        -1.24526576355175   -5.07200017724933    7.89090143325483
H        -1.22122516594908   -5.17261614092678    6.12856325580187
105
 energy: -149.511391448513 gnorm: 0.036798176878 xtb: 6.4.0 (f63f532)
N        -0.95394658539326   -2.09136629661616   -0.26113867512654
C        -2.22972304739950   -1.68205797350032   -0.36975546368999
C        -3.13022749882260   -2.35333082865979   -1.20494205925066
C        -2.70841099530514   -3.45311035458417   -1.92037870884912
C        -1.38893350576993   -3.87232783602420   -1.78499336692771
C        -0.55840567073614   -3.15767891077328   -0.94865441655480
H         0.47398185460955   -3.44168806359110   -0.80678262633960
H        -1.01838815872344   -4.73244860417537   -2.31773097282444
H        -4.14953761183810   -2.01914884307394   -1.30065665274163
C        -2.59743871936115   -0.51274971531858    0.42562114692992
N        -1.60756286483866    0.06406703962243    1.13709070055231
C        -1.89265463156825    1.12871064698735    1.88082074916459
C        -3.15610016921957    1.67693120484154    1.97329037334595
C        -4.18772985458128    1.09296198402971    1.24730883314126
C        -3.90174193430098   -0.00696831303299    0.46669305018793
H        -4.69067703893234   -0.47294375986879   -0.09898801194614
H        -3.33185027625716    2.53527971898299    2.60088900274121
H        -1.05479800671262    1.55261084234420    2.41048440262197
Ir        0.42150000000000   -0.81650000000000    0.91330000000000
H         0.87260000000000   -2.23030000000000    1.54050000000000
B         0.49538860110381    0.43288901047759   -0.76920607713711
O         0.15582117111259   -0.02663021752527   -2.03332718253054
C         0.00631639314795    1.09326123945192   -2.92365759287589
C         0.49073202587847    0.73858627533094   -4.32573192060451
H         1.50597783789853    0.35805390164782   -4.30522162335710
H         0.44645723814039    1.61727905683940   -4.96425998612665
H        -0.15207158906751   -0.03101779698884   -4.74514787983008
C        -1.49596317750584    1.40557427334689   -2.96984234719445
H        -1.71510067057423    2.21483352838953   -3.65989468743589
H        -2.02563991465611    0.51114832627807   -3.29113203192992
H        -1.84564451725061    1.66450988606660   -1.97255867454763
C         0.82498893135787    2.20547147944619   -2.19906063773222
O         0.76016279639654    1.78248495783899   -0.82650813159469
C         2.30484008093860    2.19487843897147   -2.59709641714741
H         2.70714560653807    1.19764095895423   -2.44055918318342
H         2.44273966108210    2.50896298325927   -3.62783653839160
H         2.84703467718437    2.87461490537532   -1.94432875381552
C         0.27081708340234    3.62005785344769   -2.33542351486577
H        -0.72849001740067    3.69550643768832   -1.92001766283852
H         0.91566399192483    4.30281941725965   -1.78872162336701
H         0.25398468489229    3.91543339133278   -3.38120211575894
B         1.56659159413470    0.62350070960816    1.86439727167406
O         2.92230769140635    0.57466878240628    2.12775626448557
C         3.36179223008578    1.88715965851075    2.51333563649755
C         4.52992727859436    1.78888257777239    3.48660446178224
H         4.28369527028401    1.15670734461056    4.33288295782690
H         5.38313598880921    1.35183975771429    2.97515410398953
H         4.80249032075246    2.77874793411714    3.84099282286778
C         3.80199147613329    2.58413871718427    1.22197624814019
H         4.20009545823364    3.57570405364428    1.41462263491877
H         4.56579439396585    1.97565286566446    0.74529424635859
H         2.95261748172411    2.63162667018287    0.54470066714868
C         2.05367757591143    2.50486114530758    3.09201929663438
O         1.04191721955699    1.80203395283898    2.35204132483152
C         1.89637411907241    4.00656096881351    2.88881633456882
H         1.86330500366425    4.24830773118819    1.83240571801162
H         0.96411522002361    4.33246981138143    3.34189459389312
H         2.72077500977585    4.53372785134159    3.36024655269027
C         1.84262187920898    2.15007471089251    4.56865439943484
H         1.95070381460239    1.07665015041739    4.70341734765744
H         2.54597382542034    2.67496156010258    5.20689536370841
H         0.82953366911537    2.42333749243034    4.85483446456852
B         2.27819999999999   -1.33089999999999    0.17409999999999
O         2.90268147590863   -2.54921590084006    0.40163650132417
C         4.25818460320297   -2.48173000549662   -0.07725177039123
C         5.11418779190820   -2.06061204985083    1.12116294638886
H         4.75468311776928   -1.10298651945583    1.49004248513801
H         4.98551802822954   -2.79459972245287    1.91231881717673
H         6.16617026154292   -2.00165576425178    0.86046729023361
C         4.71103050299202   -3.84378656978434   -0.58977225022443
H         4.74409178105788   -4.54147521995657    0.24203419510247
H         5.70469195174475   -3.76292965025692   -1.02096821895849
H         4.02517936328513   -4.23327530743722   -1.33390466267367
C         4.16103079462525   -1.36105003028126   -1.15587991155734
O         3.06094922405781   -0.57350634396464   -0.67065529878117
C         5.40567858528062   -0.49438019145608   -1.30906839825440
H         6.25412607631187   -1.10780652179225   -1.59856855810271
H         5.22929357665209    0.24983090246233   -2.08067937280791
H         5.63037352175064    0.02249479117081   -0.38323602053808
C         3.73925417146428   -1.90407609101235   -2.52777551565271
H         2.84827405431098   -2.51708337920420   -2.41899312613992
H         3.48627377524194   -1.06443239148185   -3.17041159620067
H         4.53607432753248   -2.47680779314206   -2.99173645375045
H        -3.38971101344884   -3.97875584506729   -2.57103279917262
H        -5.19066346931916    1.48897568746334    1.29217762988940
C         0.23590000000000   -1.68140000000004    2.96030000000001
C        -1.00090213585206   -2.13485122257187    3.41645273076047
C         1.29407143197484   -1.74428376262154    3.87052715997564
C        -1.16573157658867   -2.62969296745219    4.69979896995742
H        -1.86018626282243   -2.13293301278727    2.76015442427267
C         1.11396946250551   -2.25181149123705    5.14063672076790
H         2.27770174030479   -1.42971635981614    3.55539013102533
C        -0.10542096857400   -2.74969221755784    5.59119459645586
H        -2.14315038608013   -2.97326900247116    5.00159498099298
Br        2.66893542001946   -2.31635133535273    6.26610094496699
C        -0.24873515662638   -3.40826485401847    6.94293684126059
C        -0.51328850018376   -2.35555972012049    8.02401430050834
C        -1.32975659028367   -4.48899649506045    6.97194079862655
H         0.70617941274129   -3.89507151007465    7.17511648149684
H        -1.44167151566238   -1.82689278122697    7.81935709382889
H         0.29760235235301   -1.63211282991646    8.06202498717193
H        -0.58952387869990   -2.83400854358963    8.99737389572907
H        -2.32519047116603   -4.05286615395032    6.94280619788268
H        -1.24288314314864   -5.06392302097763    7.89109759831488
H        -1.21730634396167   -5.16887939733024    6.13023834974394
105
 energy: -149.511928456287 gnorm: 0.036173902734 xtb: 6.4.0 (f63f532)
N        -0.94497834271450   -2.08783369040228   -0.27224818354399
C        -2.22149054061156   -1.67833549963275   -0.37549422512142
C        -3.12722836953680   -2.34953059636600   -1.20623486676818
C        -2.71132021189085   -3.45001166968216   -1.92272278527170
C        -1.39005007782331   -3.86936826638795   -1.79371928860627
C        -0.55512239732934   -3.15357497408134   -0.96245011619414
H         0.47723173899372   -3.44151198676512   -0.82583012850491
H        -1.02375164142056   -4.73055087345372   -2.32669762218371
H        -4.14635769982506   -2.01347211008436   -1.29603421792984
C        -2.58724026182707   -0.51236778571795    0.41989933258917
N        -1.59786474335075    0.06441617066101    1.13267578446900
C        -1.88605474758234    1.12847501372445    1.87511415093204
C        -3.15019528030758    1.67411932407856    1.96987425626598
C        -4.18244625550919    1.08813627297669    1.24386352997846
C        -3.89301329775788   -0.00856736681702    0.46133338030918
H        -4.67957033365001   -0.47549504838621   -0.10657007504275
H        -3.32742546911370    2.53004155762824    2.59929519465276
H        -1.05129478937794    1.55447679054909    2.40854007703930
Ir        0.42150000000000   -0.81650000000000    0.91330000000000
H         0.87260000000000   -2.23030000000000    1.54050000000000
B         0.48339554958965    0.44576737935395   -0.75110488327192
O         0.13515557389995   -0.01871293529926   -2.01073085828442
C        -0.00193427908904    1.09339237851221   -2.90726974438670
C         0.48959892815003    0.72883774701076   -4.30512469494390
H         1.50233530605040    0.34241659766328   -4.27824316945160
H         0.45269512367169    1.60729018993400   -4.94385015251963
H        -0.15620970653249   -0.03792792125867   -4.72471620931493
C        -1.50298293755002    1.41395862359155   -2.96928187942785
H        -1.70770172909667    2.22127892774170   -3.66545803493836
H        -2.03374026619942    0.52106335798381   -3.29236304790851
H        -1.86081897379720    1.67923852346139   -1.97671775599104
C         0.81769597145665    2.20770623305596   -2.18655244149909
O         0.76129204869641    1.79059772010651   -0.81500548812137
C         2.29605709050588    2.19893267801728   -2.59339344717532
H         2.70083429646174    1.20370367141296   -2.43099577896699
H         2.42506884399187    2.50548025829865   -3.62715859146167
H         2.83921867240388    2.88566260786784   -1.94902053043546
C         0.26193435631333    3.62190886009955   -2.32961738036589
H        -0.73520524207627    3.70087402619935   -1.91008293571539
H         0.91031468039731    4.30879499757428   -1.79247508268040
H         0.24036497009759    3.90558591386193   -3.37829834644610
B         1.56801645877515    0.62653520671831    1.86857675864242
O         2.92331941659946    0.58026148947664    2.11888109301156
C         3.36200064243273    1.88790423464758    2.51563140537494
C         4.52938243861170    1.78683817841928    3.49095382814425
H         4.28503372677784    1.14895676279396    4.33336078061068
H         5.38493264414607    1.35692641148702    2.97755404443540
H         4.79528111469860    2.77647328044661    3.85033918087092
C         3.80585087942178    2.59518403755919    1.23017609288348
H         4.20025795421635    3.58591407035881    1.43192274605620
H         4.57300466771177    1.99150415433161    0.75292354362402
H         2.95803799033167    2.64400836800770    0.55140751304303
C         2.05436836429957    2.50404810045789    3.09715910267754
O         1.04119661762072    1.79603046522434    2.36724726375202
C         1.89546793260838    4.00596714206388    2.89053007653113
H         1.85434268935427    4.24554578337135    1.83394201740235
H         0.96741627684179    4.33341755504554    3.35084358081859
H         2.72500462901940    4.53126825342582    3.35440218426094
C         1.85322012342965    2.15701946111252    4.57799324235537
H         1.96580533126998    1.08471569270261    4.71644780119041
H         2.55951954945011    2.68818564802560    5.20717932092688
H         0.84115274517611    2.42876351989596    4.86822000273210
B         2.27819999999998   -1.33089999999999    0.17409999999998
O         2.90432359852358   -2.54291853465024    0.41164807860710
C         4.25395073939292   -2.48105634561325   -0.07609458820202
C         5.11973424955642   -2.06149569713054    1.11686245463931
H         4.76204422864906   -1.10405396797633    1.48758998511894
H         4.99515710295984   -2.79602352680932    1.90790871816464
H         6.16913619312678   -2.00340118025792    0.84773843203552
C         4.70239552524647   -3.84506996323799   -0.58991705739047
H         4.73921076946712   -4.54114382484948    0.24283500818692
H         5.69370856908013   -3.76199693783309   -1.02519898625083
H         4.01331300216678   -4.23507469122752   -1.33059659864818
C         4.15731323395131   -1.36197348463917   -1.15643143637556
O         3.05188113770930   -0.57875694591013   -0.68018088825624
C         5.40200917135170   -0.49355232267642   -1.30464240289105
H         6.25021701539445   -1.11050071103857   -1.58647682128094
H         5.22986900984085    0.24689714627034   -2.08058584928332
H         5.62161764801021    0.02662054105398   -0.37962395722574
C         3.74814167629267   -1.90865170479296   -2.53167114408220
H         2.85760447847511   -2.52280057107893   -2.42858208104697
H         3.50045418812387   -1.07032910130039   -3.17790088301248
H         4.55126878614011   -2.48024194177766   -2.98511390605229
H        -3.39632588337819   -3.97546777972756   -2.56927935734135
H        -5.18633236831065    1.48066422360449    1.29055230162338
C         0.23590000000000   -1.68140000000008    2.96030000000002
C        -1.00059067614157   -2.13715688320955    3.41500275959039
C         1.29303339233894   -1.73884710871014    3.87274023348799
C        -1.16625653322430   -2.62986005192082    4.69895160245204
H        -1.85842503294145   -2.13916644722089    2.75680258578693
C         1.11086309666707   -2.24382238563315    5.14267337133803
H         2.27598716129596   -1.42222336147238    3.55808012325966
C        -0.10723122085597   -2.74489376441459    5.59262686438375
H        -2.14327681267730   -2.97574497788017    4.99949328487307
Br        2.66548069510869   -2.29992015531278    6.27366048634061
C        -0.25108273354140   -3.40092060945530    6.94452635012651
C        -0.52060116698868   -2.34631217885839    8.02291964138050
C        -1.32902292305619   -4.48449982131536    6.97348848549901
H         0.70481125238373   -3.88453351417365    7.17963073392377
H        -1.45008584711217   -1.82093194001621    7.81483949826867
H         0.28825884433329   -1.62062159927609    8.06010850454285
H        -0.59712806665581   -2.82309418766320    8.99695944300545
H        -2.32558253859832   -4.05108778528688    6.94111216476489
H        -1.24225358228947   -5.05707586889606    7.89405769133502
H        -1.21272466658863   -5.16560392868901    6.13323225656267
105
 energy: -149.512545791733 gnorm: 0.036692301578 xtb: 6.4.0 (f63f532)
N        -0.93253883949371   -2.08697674243691   -0.28667129543302
C        -2.21022442985948   -1.67556530111381   -0.38371005555046
C        -3.12181998535003   -2.34555165887675   -1.21083714742531
C        -2.71313173283533   -3.44667563791523   -1.92989183763608
C        -1.38948079411400   -3.86615182661918   -1.81039774228665
C        -0.54826781685027   -3.15078295474714   -0.98381856981346
H         0.48581434921243   -3.44029272938335   -0.85879324530269
H        -1.02816532821417   -4.72757818106171   -2.34671877006227
H        -4.14103377801572   -2.00671924776552   -1.29267074323123
C        -2.57354857050180   -0.51236242106947    0.41324523839636
N        -1.58498537340044    0.06218340401055    1.13188547943305
C        -1.87608046004917    1.12767486837216    1.87305059109154
C        -3.14102048725355    1.67179502487450    1.96716368206171
C        -4.17346096816319    1.08494363734932    1.23901538239156
C        -3.88002622641267   -0.00755068497096    0.45283448717654
H        -4.66352716430308   -0.47445485548941   -0.11978575819837
H        -3.31985055711390    2.52602701811961    2.59838060736360
H        -1.04397717451266    1.55812951463134    2.40817009158705
Ir        0.42150000000000   -0.81650000000000    0.91330000000000
H         0.87260000000000   -2.23030000000000    1.54050000000001
B         0.48089331673183    0.46341709022293   -0.72710354394739
O         0.10243138582426   -0.00452458761456   -1.97713413520840