      -----------------------------------------------------------      
     |                   =====================                   |     
     |                           x T B                           |     
     |                   =====================                   |     
     |                         S. Grimme                         |     
     |          Mulliken Center for Theoretical Chemistry        |     
     |                    University of Bonn                     |     
      -----------------------------------------------------------      

   * xtb version 6.4.1 (1a32961) compiled by 'knkr256@seskscpg007.prim.scp' on 2021-10-19

   xtb is free software: you can redistribute it and/or modify it under
   the terms of the GNU Lesser General Public License as published by
   the Free Software Foundation, either version 3 of the License, or
   (at your option) any later version.
   
   xtb is distributed in the hope that it will be useful,
   but WITHOUT ANY WARRANTY; without even the implied warranty of
   MERCHANTABILITY or FITNESS FOR A PARTICULAR PURPOSE.  See the
   GNU Lesser General Public License for more details.
   
   Cite this work as:
   * C. Bannwarth, E. Caldeweyher, S. Ehlert, A. Hansen, P. Pracht,
     J. Seibert, S. Spicher, S. Grimme, WIREs Comput. Mol. Sci., 2020, 11,
     e01493. DOI: 10.1002/wcms.1493
   
   for GFN2-xTB:
   * C. Bannwarth, S. Ehlert and S. Grimme., J. Chem. Theory Comput., 2019,
     15, 1652-1671. DOI: 10.1021/acs.jctc.8b01176
   for GFN1-xTB:
   * S. Grimme, C. Bannwarth, P. Shushkov, J. Chem. Theory Comput., 2017,
     13, 1989-2009. DOI: 10.1021/acs.jctc.7b00118
   for GFN0-xTB:
   * P. Pracht, E. Caldeweyher, S. Ehlert, S. Grimme, ChemRxiv, 2019, preprint.
     DOI: 10.26434/chemrxiv.8326202.v1
   for GFN-FF:
   * S. Spicher and S. Grimme, Angew. Chem. Int. Ed., 2020, 59, 15665-15673.
     DOI: 10.1002/anie.202004239
   
   for ALPB and GBSA implicit solvation:
   * S. Ehlert, M. Stahn, S. Spicher, S. Grimme, J. Chem. Theory Comput.,
     2021, 17, 4250-4261. DOI: 10.1021/acs.jctc.1c00471
   
   for DFT-D4:
   * E. Caldeweyher, C. Bannwarth and S. Grimme, J. Chem. Phys., 2017,
     147, 034112. DOI: 10.1063/1.4993215
   * E. Caldeweyher, S. Ehlert, A. Hansen, H. Neugebauer, S. Spicher,
     C. Bannwarth and S. Grimme, J. Chem. Phys., 2019, 150, 154122.
     DOI: 10.1063/1.5090222
   * E. Caldeweyher, J.-M. Mewes, S. Ehlert and S. Grimme, Phys. Chem. Chem. Phys.
     2020, 22, 8499-8512. DOI: 10.1039/D0CP00502A
   
   for sTDA-xTB:
   * S. Grimme and C. Bannwarth, J. Chem. Phys., 2016, 145, 054103.
     DOI: 10.1063/1.4959605
   
   in the mass-spec context:
   * V. Asgeirsson, C. Bauer and S. Grimme, Chem. Sci., 2017, 8, 4879.
     DOI: 10.1039/c7sc00601b
   * J. Koopman and S. Grimme, ACS Omega 2019, 4, 12, 15120-15133.
     DOI: 10.1021/acsomega.9b02011
   
   for metadynamics refer to:
   * S. Grimme, J. Chem. Theory Comput., 2019, 155, 2847-2862
     DOI: 10.1021/acs.jctc.9b00143
   
   for SPH calculations refer to:
   * S. Spicher and S. Grimme, J. Chem. Theory Comput., 2021, 17, 1701-1714
     DOI: 10.1021/acs.jctc.0c01306
   
   with help from (in alphabetical order)
   P. Atkinson, C. Bannwarth, F. Bohle, G. Brandenburg, E. Caldeweyher
   M. Checinski, S. Dohm, S. Ehlert, S. Ehrlich, I. Gerasimov, J. Koopman
   C. Lavigne, S. Lehtola, F. März, M. Müller, F. Musil, H. Neugebauer
   J. Pisarek, C. Plett, P. Pracht, J. Seibert, P. Shushkov, S. Spicher
   M. Stahn, M. Steiner, T. Strunk, J. Stückrath, T. Rose, and J. Unsleber
   
 * started run on 2022/01/14 at 15:04:57.367     

           -------------------------------------------------
          |                Calculation Setup                |
           -------------------------------------------------

          program call               : xtb xtbopt.xyz --sp --alpb thf -P 6
          hostname                   : seskscpg007.prim.scp
          coordinate file            : xtbopt.xyz
          omp threads                :                     6
          number of atoms            :                   101
          number of electrons        :                   262
          charge                     :                     0
          spin                       :                   0.0
          first test random number   :      0.34699293249026

   ID    Z sym.   atoms
    1    7 N      1, 11, 91
    2    6 C      2-6, 10, 12-15, 23, 24, 28, 32, 34, 38, 44, 45, 49, 53, 55,
                  59, 65, 66, 70, 74, 76, 80, 86-90, 92, 93
    3    1 H      7-9, 16-18, 20, 25-27, 29-31, 35-37, 39-41, 46-48, 50-52,
                  56-58, 60-62, 67-69, 71-73, 77-79, 81-85, 94-101
    4   77 Ir     19
    5    5 B      21, 42, 63
    6    8 O      22, 33, 43, 54, 64, 75

molecular fragmentation (1/2 indicates fragments):
111111111111111111111111111111111111111111111111111111111111111111111111
11111111111112222222222222222
# atoms in fragment 1/2:    85    16
 fragment masses (1/2) :      730.32      106.15
CMA distance (Bohr)    :   8.141
constraining FC (au)   :  0.0500

           -------------------------------------------------
          |                 G F N 2 - x T B                 |
           -------------------------------------------------

        Reference                      10.1021/acs.jctc.8b01176
      * Hamiltonian:
        H0-scaling (s, p, d)           1.850000    2.230000    2.230000
        zeta-weighting                 0.500000
      * Dispersion:
        s8                             2.700000
        a1                             0.520000
        a2                             5.000000
        s9                             5.000000
      * Repulsion:
        kExp                           1.500000    1.000000
        rExp                           1.000000
      * Coulomb:
        alpha                          2.000000
        third order                    shell-resolved
        anisotropic                    true
        a3                             3.000000
        a5                             4.000000
        cn-shift                       1.200000
        cn-exp                         4.000000
        max-rad                        5.000000

      * Solvation model:               ALPB
        Solvent                        thf
        Parameter file                 internal GFN2-xTB/ALPB
        Dielectric constant                7.6000E+00
        Reference state                gsolv [1 M gas/solution]
        Free energy shift                  5.3248E-03 Eh       3.3414E+00 kcal/mol
        Temperature                        2.9815E+02 K
        Density                            8.8300E-01 kg/L
        Solvent mass                       7.2106E+01 g/mol
        Interaction kernel             P16
        Born radius scaling (c1)           1.7311E+00
        Born radii integrator          GBOBC
        Born offset                        0.0000E+00 a0       0.0000E+00 AA
        H-bond correction              true
        Ion screening                  false
        Surface tension                    1.0000E-05 Eh       1.5569E+01 dyn/cm
        Grid points                               230 per atom
q/qsh data taken from xtbrestart
CAMM data taken from xtbrestart

          ...................................................
          :                      SETUP                      :
          :.................................................:
          :  # basis functions                 251          :
          :  # atomic orbitals                 250          :
          :  # shells                          150          :
          :  # electrons                       262          :
          :  max. iterations                   250          :
          :  Hamiltonian                  GFN2-xTB          :
          :  restarted?                       true          :
          :  GBSA solvation                   true          :
          :  PC potential                    false          :
          :  electronic temp.          300.0000000     K    :
          :  accuracy                    1.0000000          :
          :  -> integral cutoff          0.2500000E+02      :
          :  -> integral neglect         0.1000000E-07      :
          :  -> SCF convergence          0.1000000E-05 Eh   :
          :  -> wf. convergence          0.1000000E-03 e    :
          :  Broyden damping             0.4000000          :
          ...................................................

 iter      E             dE          RMSdq      gap      omega  full diag
   1   -144.8948227 -0.144895E+03  0.430E-05    0.86       0.0  T
   2   -144.8948227  0.931180E-09  0.103E-04    0.86      96.3  T
   3   -144.8948227 -0.108548E-08  0.189E-05    0.86     527.0  T

   *** convergence criteria satisfied after 3 iterations ***

         #    Occupation            Energy/Eh            Energy/eV
      -------------------------------------------------------------
         1        2.0000           -0.6761692             -18.3995
       ...           ...                  ...                  ...
       125        2.0000           -0.3544416              -9.6448
       126        2.0000           -0.3451379              -9.3917
       127        2.0000           -0.3319384              -9.0325
       128        2.0000           -0.3210168              -8.7353
       129        2.0000           -0.3150603              -8.5732
       130        2.0000           -0.3097646              -8.4291
       131        2.0000           -0.3076234              -8.3709 (HOMO)
       132        0.0000           -0.2759142              -7.5080 (LUMO)
       133                         -0.2480940              -6.7510
       134                         -0.2454844              -6.6800
       135                         -0.2190907              -5.9618
       136                         -0.2095302              -5.7016
       ...                                ...                  ...
       250                          3.8798678             105.5766
      -------------------------------------------------------------
                  HL-Gap            0.0317093 Eh            0.8629 eV
             Fermi-level           -0.2917212 Eh           -7.9381 eV

 SCC (total)                   0 d,  0 h,  0 min,  0.095 sec
 SCC setup                      ...        0 min,  0.003 sec (  3.338%)
 Dispersion                     ...        0 min,  0.002 sec (  2.607%)
 classical contributions        ...        0 min,  0.000 sec (  0.172%)
 integral evaluation            ...        0 min,  0.011 sec ( 11.587%)
 iterations                     ...        0 min,  0.039 sec ( 40.394%)
 molecular gradient             ...        0 min,  0.039 sec ( 41.120%)
 printout                       ...        0 min,  0.001 sec (  0.723%)

         :::::::::::::::::::::::::::::::::::::::::::::::::::::
         ::                     SUMMARY                     ::
         :::::::::::::::::::::::::::::::::::::::::::::::::::::
         :: total energy            -143.040792120740 Eh    ::
         :: total w/o Gsasa/hb      -143.003581507385 Eh    ::
         :: gradient norm              0.028582734944 Eh/a0 ::
         :: HOMO-LUMO gap              0.862853079157 eV    ::
         ::.................................................::
         :: SCC energy              -144.894822655681 Eh    ::
         :: -> isotropic ES            0.244651261838 Eh    ::
         :: -> anisotropic ES          0.010715487825 Eh    ::
         :: -> anisotropic XC          0.053278249591 Eh    ::
         :: -> dispersion             -0.144622879528 Eh    ::
         :: -> Gsolv                  -0.046779683587 Eh    ::
         ::    -> Gelec               -0.009569070231 Eh    ::
         ::    -> Gsasa               -0.040089522449 Eh    ::
         ::    -> Ghb                 -0.002445906351 Eh    ::
         ::    -> Gshift               0.005324815444 Eh    ::
         :: repulsion energy           1.844567090020 Eh    ::
         :: add. restraining           0.000000000000 Eh    ::
         :: total charge               0.000000000010 e     ::
         :::::::::::::::::::::::::::::::::::::::::::::::::::::

           -------------------------------------------------
          |                Property Printout                |
           -------------------------------------------------

    * Orbital Energies and Occupations

         #    Occupation            Energy/Eh            Energy/eV
      -------------------------------------------------------------
         1        2.0000           -0.6761692             -18.3995
       ...           ...                  ...                  ...
       119        2.0000           -0.3926888             -10.6856
       120        2.0000           -0.3879320             -10.5562
       121        2.0000           -0.3872305             -10.5371
       122        2.0000           -0.3850157             -10.4768
       123        2.0000           -0.3827101             -10.4141
       124        2.0000           -0.3781822             -10.2909
       125        2.0000           -0.3544416              -9.6448
       126        2.0000           -0.3451379              -9.3917
       127        2.0000           -0.3319384              -9.0325
       128        2.0000           -0.3210168              -8.7353
       129        2.0000           -0.3150603              -8.5732
       130        2.0000           -0.3097646              -8.4291
       131        2.0000           -0.3076234              -8.3709 (HOMO)
       132        0.0000           -0.2759142              -7.5080 (LUMO)
       133                         -0.2480940              -6.7510
       134                         -0.2454844              -6.6800
       135                         -0.2190907              -5.9618
       136                         -0.2095302              -5.7016
       137                         -0.2043811              -5.5615
       138                         -0.1885355              -5.1303
       139                         -0.1526301              -4.1533
       140                         -0.1269273              -3.4539
       141                         -0.1255148              -3.4154
       142                         -0.1109446              -3.0190
       ...                                ...                  ...
       250                          3.8798678             105.5766
      -------------------------------------------------------------
                  HL-Gap            0.0317093 Eh            0.8629 eV
             Fermi-level           -0.2917212 Eh           -7.9381 eV

     #   Z          covCN         q      C6AA      α(0)
     1   7 N        2.517    -0.129    23.838     7.251
     2   6 C        2.953     0.080    26.220     8.399
     3   6 C        2.918    -0.042    29.050     8.838
     4   6 C        2.924    -0.022    28.554     8.763
     5   6 C        2.915    -0.044    29.097     8.845
     6   6 C        2.892     0.049    26.902     8.504
     7   1 H        0.926     0.051     2.311     2.377
     8   1 H        0.926     0.054     2.269     2.355
     9   1 H        0.926     0.044     2.399     2.422
    10   6 C        2.952     0.073    26.377     8.424
    11   7 N        2.555    -0.130    23.854     7.253
    12   6 C        2.890     0.043    27.026     8.523
    13   6 C        2.915    -0.046    29.137     8.852
    14   6 C        2.922    -0.026    28.660     8.779
    15   6 C        2.918    -0.046    29.149     8.854
    16   1 H        0.926     0.044     2.396     2.421
    17   1 H        0.926     0.048     2.342     2.393
    18   1 H        0.926     0.069     2.091     2.261
    19  77 Ir       5.904    -0.149   387.395    36.398
    20   1 H        0.977     0.091     1.864     2.134
    21   5 B        2.626     0.406    16.006     6.762
    22   8 O        1.638    -0.407    20.998     6.185
    23   6 C        3.835     0.130    18.444     6.110
    24   6 C        3.755    -0.120    22.864     6.818
    25   1 H        0.925     0.054     2.276     2.359
    26   1 H        0.925     0.045     2.385     2.415
    27   1 H        0.925     0.050     2.314     2.379
    28   6 C        3.754    -0.109    22.642     6.785
    29   1 H        0.925     0.048     2.350     2.397
    30   1 H        0.925     0.042     2.426     2.436
    31   1 H        0.925     0.027     2.630     2.536
    32   6 C        3.841     0.132    18.423     6.106
    33   8 O        1.637    -0.408    21.006     6.187
    34   6 C        3.755    -0.122    22.893     6.822
    35   1 H        0.925     0.054     2.269     2.356
    36   1 H        0.925     0.046     2.376     2.410
    37   1 H        0.925     0.049     2.331     2.387
    38   6 C        3.754    -0.119    22.841     6.815
    39   1 H        0.925     0.046     2.374     2.410
    40   1 H        0.925     0.053     2.287     2.365
    41   1 H        0.925     0.045     2.378     2.411
    42   5 B        2.620     0.406    16.040     6.775
    43   8 O        1.637    -0.386    20.598     6.126
    44   6 C        3.831     0.129    18.472     6.115
    45   6 C        3.755    -0.128    23.013     6.840
    46   1 H        0.925     0.058     2.220     2.330
    47   1 H        0.925     0.056     2.242     2.342
    48   1 H        0.925     0.050     2.325     2.384
    49   6 C        3.755    -0.121    22.879     6.820
    50   1 H        0.925     0.047     2.352     2.398
    51   1 H        0.925     0.046     2.364     2.405
    52   1 H        0.925     0.053     2.287     2.365
    53   6 C        3.831     0.128    18.486     6.118
    54   8 O        1.637    -0.383    20.537     6.117
    55   6 C        3.755    -0.123    22.915     6.826
    56   1 H        0.925     0.052     2.298     2.371
    57   1 H        0.925     0.053     2.286     2.364
    58   1 H        0.925     0.049     2.334     2.389
    59   6 C        3.755    -0.125    22.957     6.832
    60   1 H        0.925     0.053     2.287     2.365
    61   1 H        0.925     0.053     2.287     2.365
    62   1 H        0.925     0.049     2.332     2.388
    63   5 B        2.629     0.401    16.049     6.769
    64   8 O        1.637    -0.375    20.375     6.093
    65   6 C        3.835     0.125    18.527     6.124
    66   6 C        3.755    -0.131    23.072     6.849
    67   1 H        0.925     0.056     2.250     2.346
    68   1 H        0.925     0.057     2.231     2.336
    69   1 H        0.925     0.051     2.309     2.376
    70   6 C        3.755    -0.130    23.052     6.846
    71   1 H        0.925     0.061     2.184     2.311
    72   1 H        0.925     0.050     2.316     2.380
    73   1 H        0.925     0.053     2.277     2.360
    74   6 C        3.831     0.128    18.488     6.118
    75   8 O        1.637    -0.383    20.531     6.116
    76   6 C        3.755    -0.124    22.942     6.830
    77   1 H        0.925     0.051     2.308     2.376
    78   1 H        0.925     0.052     2.291     2.367
    79   1 H        0.925     0.056     2.249     2.345
    80   6 C        3.755    -0.122    22.891     6.822
    81   1 H        0.925     0.040     2.453     2.449
    82   1 H        0.925     0.049     2.337     2.391
    83   1 H        0.925     0.055     2.263     2.352
    84   1 H        0.926     0.051     2.310     2.377
    85   1 H        0.926     0.047     2.359     2.402
    86   6 C        2.827    -0.053    29.301     8.870
    87   6 C        2.980     0.028    27.363     8.581
    88   6 C        2.950     0.098    25.832     8.336
    89   6 C        2.918    -0.067    29.677     8.933
    90   6 C        3.759    -0.108    22.613     6.780
    91   7 N        1.846    -0.268    27.820     7.817
    92   6 C        3.763    -0.147    23.377     6.892
    93   6 C        2.896     0.041    27.086     8.533
    94   1 H        0.926     0.024     2.669     2.555
    95   1 H        0.924     0.046     2.373     2.409
    96   1 H        0.925     0.052     2.298     2.371
    97   1 H        0.925     0.035     2.521     2.483
    98   1 H        0.925     0.079     1.987     2.204
    99   1 H        0.925     0.069     2.102     2.267
   100   1 H        0.925     0.066     2.132     2.283
   101   1 H        0.925     0.024     2.670     2.555

 Mol. C6AA /au·bohr⁶  :     106146.203620
 Mol. C8AA /au·bohr⁸  :    2808836.090698
 Mol. α(0) /au        :        504.137053


Wiberg/Mayer (AO) data.
largest (>0.10) Wiberg bond orders for each atom

 ---------------------------------------------------------------------------
     #   Z sym  total        # sym  WBO       # sym  WBO       # sym  WBO
 ---------------------------------------------------------------------------
     1   7 N    3.381 --     6 C    1.392     2 C    1.307    19 Ir   0.416
     2   6 C    3.979 --     3 C    1.351     1 N    1.307    10 C    1.092
     3   6 C    3.988 --     4 C    1.481     2 C    1.351     9 H    0.962
                             6 C    0.105
     4   6 C    3.984 --     3 C    1.481     5 C    1.384    84 H    0.969
     5   6 C    3.980 --     6 C    1.457     4 C    1.384     8 H    0.969
     6   6 C    3.978 --     5 C    1.457     1 N    1.392     7 H    0.957
                             3 C    0.105
     7   1 H    0.997 --     6 C    0.957
     8   1 H    0.996 --     5 C    0.969
     9   1 H    0.998 --     3 C    0.962
    10   6 C    3.979 --    15 C    1.356    11 N    1.299     2 C    1.092
    11   7 N    3.391 --    12 C    1.386    10 C    1.299    19 Ir   0.425
    12   6 C    3.975 --    13 C    1.457    11 N    1.386    18 H    0.951
                            15 C    0.104
    13   6 C    3.982 --    12 C    1.457    14 C    1.384    17 H    0.969
    14   6 C    3.982 --    15 C    1.476    13 C    1.384    85 H    0.969
    15   6 C    3.989 --    14 C    1.476    10 C    1.356    16 H    0.962
                            12 C    0.104
    16   1 H    0.998 --    15 C    0.962
    17   1 H    0.997 --    13 C    0.969
    18   1 H    0.995 --    12 C    0.951
    19  77 Ir   5.137 --    63 B    0.877    42 B    0.854    21 B    0.714
                            86 C    0.575    20 H    0.520    11 N    0.425
                             1 N    0.416
    20   1 H    0.989 --    19 Ir   0.520    86 C    0.362
    21   5 B    3.271 --    33 O    1.108    22 O    1.094    19 Ir   0.714
    22   8 O    2.194 --    21 B    1.094    23 C    0.942
    23   6 C    3.943 --    24 C    0.996    28 C    0.990    22 O    0.942
                            32 C    0.941
    24   6 C    3.994 --    23 C    0.996    26 H    0.984    27 H    0.983
                            25 H    0.983
    25   1 H    0.997 --    24 C    0.983
    26   1 H    0.997 --    24 C    0.984
    27   1 H    0.997 --    24 C    0.983
    28   6 C    3.997 --    23 C    0.990    31 H    0.985    29 H    0.984
                            30 H    0.984
    29   1 H    0.997 --    28 C    0.984
    30   1 H    0.998 --    28 C    0.984
    31   1 H    0.999 --    28 C    0.985
    32   6 C    3.939 --    38 C    0.997    34 C    0.991    23 C    0.941
                            33 O    0.938
    33   8 O    2.197 --    21 B    1.108    32 C    0.938
    34   6 C    3.994 --    32 C    0.991    36 H    0.984    37 H    0.982
                            35 H    0.980
    35   1 H    0.997 --    34 C    0.980
    36   1 H    0.997 --    34 C    0.984
    37   1 H    0.997 --    34 C    0.982
    38   6 C    3.994 --    32 C    0.997    41 H    0.984    39 H    0.983
                            40 H    0.983
    39   1 H    0.998 --    38 C    0.983
    40   1 H    0.997 --    38 C    0.983
    41   1 H    0.997 --    38 C    0.984
    42   5 B    3.337 --    54 O    1.115    43 O    1.107    19 Ir   0.854
    43   8 O    2.224 --    42 B    1.107    44 C    0.936
    44   6 C    3.936 --    45 C    0.996    49 C    0.991    53 C    0.938
                            43 O    0.936
    45   6 C    3.992 --    44 C    0.996    48 H    0.983    47 H    0.982
                            46 H    0.981
    46   1 H    0.996 --    45 C    0.981
    47   1 H    0.997 --    45 C    0.982
    48   1 H    0.996 --    45 C    0.983
    49   6 C    3.994 --    44 C    0.991    50 H    0.983    51 H    0.983
                            52 H    0.978
    50   1 H    0.997 --    49 C    0.983
    51   1 H    0.997 --    49 C    0.983
    52   1 H    0.997 --    49 C    0.978
    53   6 C    3.936 --    55 C    0.996    59 C    0.992    44 C    0.938
                            54 O    0.933
    54   8 O    2.229 --    42 B    1.115    53 C    0.933
    55   6 C    3.993 --    53 C    0.996    58 H    0.983    57 H    0.983
                            56 H    0.983
    56   1 H    0.997 --    55 C    0.983
    57   1 H    0.997 --    55 C    0.983
    58   1 H    0.996 --    55 C    0.983
    59   6 C    3.993 --    53 C    0.992    62 H    0.983    61 H    0.983
                            60 H    0.982
    60   1 H    0.997 --    59 C    0.982
    61   1 H    0.996 --    59 C    0.983
    62   1 H    0.997 --    59 C    0.983
    63   5 B    3.360 --    64 O    1.113    75 O    1.112    19 Ir   0.877
    64   8 O    2.228 --    63 B    1.113    65 C    0.938
    65   6 C    3.938 --    70 C    0.997    66 C    0.991    74 C    0.939
                            64 O    0.938
    66   6 C    3.992 --    65 C    0.991    69 H    0.983    68 H    0.982
                            67 H    0.980
    67   1 H    0.997 --    66 C    0.980
    68   1 H    0.996 --    66 C    0.982
    69   1 H    0.996 --    66 C    0.983
    70   6 C    3.992 --    65 C    0.997    72 H    0.983    73 H    0.982
                            71 H    0.982
    71   1 H    0.996 --    70 C    0.982
    72   1 H    0.996 --    70 C    0.983
    73   1 H    0.997 --    70 C    0.982
    74   6 C    3.936 --    76 C    0.997    80 C    0.991    65 C    0.939
                            75 O    0.935
    75   8 O    2.230 --    63 B    1.112    74 C    0.935
    76   6 C    3.993 --    74 C    0.997    77 H    0.983    78 H    0.982
                            79 H    0.982
    77   1 H    0.996 --    76 C    0.983
    78   1 H    0.997 --    76 C    0.982
    79   1 H    0.997 --    76 C    0.982
    80   6 C    3.995 --    74 C    0.991    81 H    0.984    82 H    0.983
                            83 H    0.983
    81   1 H    0.998 --    80 C    0.984
    82   1 H    0.997 --    80 C    0.983
    83   1 H    0.996 --    80 C    0.983
    84   1 H    0.997 --     4 C    0.969
    85   1 H    0.997 --    14 C    0.969
    86   6 C    3.950 --    87 C    1.391    88 C    1.316    19 Ir   0.575
                            20 H    0.362
    87   6 C    3.986 --    86 C    1.391    89 C    1.372    90 C    1.020
    88   6 C    3.974 --    91 N    1.425    86 C    1.316    92 C    1.024
    89   6 C    3.985 --    93 C    1.454    87 C    1.372    94 H    0.967
    90   6 C    3.996 --    87 C    1.020    95 H    0.974    96 H    0.971
                            97 H    0.971
    91   7 N    3.060 --    88 C    1.425    93 C    1.401
    92   6 C    3.990 --    88 C    1.024   100 H    0.982    99 H    0.962
                            98 H    0.949
    93   6 C    3.980 --    89 C    1.454    91 N    1.401   101 H    0.963
    94   1 H    0.999 --    89 C    0.967
    95   1 H    0.997 --    90 C    0.974
    96   1 H    0.997 --    90 C    0.971
    97   1 H    0.999 --    90 C    0.971
    98   1 H    0.994 --    92 C    0.949
    99   1 H    0.995 --    92 C    0.962
   100   1 H    0.995 --    92 C    0.982
   101   1 H    0.997 --    93 C    0.963
 ---------------------------------------------------------------------------

Topologies differ in total number of bonds
Writing topology from bond orders to xtbtopo.mol

molecular dipole:
                 x           y           z       tot (Debye)
 q only:        0.384       0.137      -1.634
   full:       -1.158       0.479      -2.435       6.960
molecular quadrupole (traceless):
                xx          xy          yy          xz          yz          zz
 q only:       18.519      -0.022       2.499       1.788      13.080     -21.018
  q+dip:       21.476       1.967       2.883      -3.759      18.260     -24.359
   full:       19.608       3.462       5.649      -6.039      15.050     -25.256


           -------------------------------------------------
          | TOTAL ENERGY             -143.040792120740 Eh   |
          | GRADIENT NORM               0.028582734944 Eh/α |
          | HOMO-LUMO GAP               0.862853079157 eV   |
           -------------------------------------------------

------------------------------------------------------------------------
 * finished run on 2022/01/14 at 15:04:57.494     
------------------------------------------------------------------------
 total:
 * wall-time:     0 d,  0 h,  0 min,  0.127 sec
 *  cpu-time:     0 d,  0 h,  0 min,  0.739 sec
 * ratio c/w:     5.826 speedup
 SCF:
 * wall-time:     0 d,  0 h,  0 min,  0.097 sec
 *  cpu-time:     0 d,  0 h,  0 min,  0.577 sec
 * ratio c/w:     5.952 speedup

