101
 energy: -143.016834466396 gnorm: 0.078755230409 xtb: 6.4.1 (1a32961)
N        -0.96510000000000   -2.11530000000000   -0.24090000000000
C        -2.24700000000000   -1.69840000000000   -0.36220000000000
C        -3.14040000000000   -2.36820000000000   -1.21200000000000
C        -2.70220000000000   -3.47560000000000   -1.93050000000000
C        -1.37780000000000   -3.89880000000000   -1.78760000000000
C        -0.54290000000000   -3.18670000000000   -0.93510000000000
H         0.49810000000000   -3.45630000000000   -0.78940000000000
H        -0.99570000000000   -4.76030000000000   -2.32770000000000
H        -4.16500000000000   -2.02890000000000   -1.31830000000000
C        -2.62130000000000   -0.50950000000000    0.44100000000000
N        -1.62600000000000    0.07330000000000    1.16020000000000
C        -1.89680000000000    1.15240000000000    1.91690000000000
C        -3.17230000000000    1.70330000000000    1.99650000000000
C        -4.20510000000000    1.11740000000000    1.26270000000000
C        -3.92610000000000    0.00250000000000    0.47820000000000
H        -4.71960000000000   -0.46420000000000   -0.09520000000000
H        -3.34630000000000    2.57510000000000    2.62070000000000
H        -1.04450000000000    1.57420000000000    2.43690000000000
Ir        0.42150000000000   -0.81650000000000    0.91330000000000
H         0.87260000000000   -2.23030000000000    1.54050000000000
B         0.50670000000000    0.41560000000000   -0.81540000000000
O         0.19500000000000   -0.04700000000000   -2.09150000000000
C         0.00650000000000    1.10040000000000   -2.95430000000000
C         0.49020000000000    0.74740000000000   -4.35780000000000
H         1.51610000000000    0.37380000000000   -4.33700000000000
H         0.44730000000000    1.62240000000000   -5.01670000000000
H        -0.14740000000000   -0.03390000000000   -4.78430000000000
C        -1.50120000000000    1.39560000000000   -2.96670000000000
H        -1.75370000000000    2.21460000000000   -3.64850000000000
H        -2.03200000000000    0.49450000000000   -3.28930000000000
H        -1.85170000000000    1.65210000000000   -1.96220000000000
C         0.84230000000000    2.20670000000000   -2.22040000000000
O         0.75200000000000    1.78260000000000   -0.83690000000000
C         2.32930000000000    2.18620000000000   -2.59900000000000
H         2.74130000000000    1.18500000000000   -2.45750000000000
H         2.48870000000000    2.51300000000000   -3.63180000000000
H         2.87200000000000    2.86270000000000   -1.93200000000000
C         0.28440000000000    3.62290000000000   -2.33660000000000
H        -0.72650000000000    3.69040000000000   -1.92910000000000
H         0.92130000000000    4.31480000000000   -1.77610000000000
H         0.26430000000000    3.94810000000000   -3.38320000000000
B         1.56300000000000    0.60960000000000    1.84840000000000
O         2.92780000000000    0.55230000000000    2.15020000000000
C         3.36330000000000    1.88660000000000    2.50260000000000
C         4.53140000000000    1.78590000000000    3.47740000000000
H         4.27910000000000    1.16090000000000    4.33690000000000
H         5.39390000000000    1.33790000000000    2.97340000000000
H         4.82390000000000    2.77870000000000    3.83820000000000
C         3.79700000000000    2.56850000000000    1.19670000000000
H         4.20020000000000    3.57090000000000    1.37680000000000
H         4.56740000000000    1.95560000000000    0.72110000000000
H         2.95240000000000    2.63260000000000    0.50540000000000
C         2.05040000000000    2.50090000000000    3.09320000000000
O         1.03750000000000    1.81620000000000    2.31910000000000
C         1.89100000000000    4.00450000000000    2.88650000000000
H         1.87290000000000    4.25440000000000    1.82410000000000
H         0.94940000000000    4.34260000000000    3.33170000000000
H         2.71080000000000    4.55150000000000    3.36630000000000
C         1.82470000000000    2.13200000000000    4.56520000000000
H         1.92610000000000    1.05330000000000    4.71320000000000
H         2.52610000000000    2.65280000000000    5.22540000000000
H         0.80630000000000    2.41580000000000    4.84900000000000
B         2.27820000000000   -1.33090000000000    0.17410000000000
O         2.89460000000000   -2.57740000000000    0.38450000000000
C         4.26930000000000   -2.48200000000000   -0.07210000000000
C         5.10900000000000   -2.05380000000000    1.14010000000000
H         4.76350000000000   -1.08740000000000    1.51750000000000
H         4.98050000000000   -2.79470000000000    1.93590000000000
H         6.17420000000000   -1.99290000000000    0.89300000000000
C         4.71950000000000   -3.84660000000000   -0.58470000000000
H         4.75280000000000   -4.56130000000000    0.24420000000000
H         5.72330000000000   -3.78370000000000   -1.02010000000000
H         4.03500000000000   -4.23600000000000   -1.34170000000000
C         4.16440000000000   -1.36220000000000   -1.16300000000000
O         3.08520000000000   -0.55030000000000   -0.65400000000000
C         5.40720000000000   -0.48870000000000   -1.31550000000000
H         6.27320000000000   -1.09010000000000   -1.61530000000000
H         5.23300000000000    0.26930000000000   -2.08590000000000
H         5.64270000000000    0.02650000000000   -0.38240000000000
C         3.71800000000000   -1.89830000000000   -2.53110000000000
H         2.82530000000000   -2.52160000000000   -2.42740000000000
H         3.46090000000000   -1.05250000000000   -3.17550000000000
H         4.50570000000000   -2.48290000000000   -3.01790000000000
H        -3.38500000000000   -4.00130000000000   -2.59310000000000
H        -5.21400000000000    1.52080000000000    1.29960000000000
C         0.23590000000000   -1.68140000000000    2.96030000000000
C        -0.99692723042567   -2.10265882803835    3.48473592949943
C         1.30467258156933   -1.85120685815390    3.86690160181708
C        -1.15508034167775   -2.23185006038669    4.86748454199690
C        -2.15608429901974   -2.59932301609866    2.67244210137771
N         1.15838620776461   -1.96703091192763    5.18924293155877
C         2.71061645311176   -2.12357592947538    3.43383210644867
C        -0.06633762526106   -2.06928875093865    5.69565110522199
H        -2.11022537200730   -2.53887915568581    5.27278453926745
H        -2.60410000345603   -3.45618102016192    3.17998748434977
H        -1.82747360428382   -2.92666456291065    1.68950570392054
H        -2.93162536196131   -1.84053106246618    2.56168767901422
H         3.16461984365472   -1.23972691904913    2.99558852851324
H         2.70889353867947   -2.90275700398108    2.67240920888596
H         3.28785751384348   -2.45437635314758    4.29664097522131
H        -0.12990038833442   -2.14990277288489    6.77428319806502
101
 energy: -143.024919488686 gnorm: 0.049024714527 xtb: 6.4.1 (1a32961)
N        -0.95342519651735   -2.07544573820574   -0.29023587397953
C        -2.23314000703859   -1.66538251214876   -0.40099073849121
C        -3.13322951146167   -2.35293126081157   -1.22324360561720
C        -2.70499594576605   -3.46263998578834   -1.92858485643328
C        -1.38472180511130   -3.88143237662007   -1.78992669467251
C        -0.55016619150116   -3.15664231282274   -0.96151959754017
H         0.48061907035886   -3.44333081474374   -0.80166559867167
H        -1.01041401178772   -4.74736123415825   -2.31710799401024
H        -4.15715233550593   -2.02554242019975   -1.31743230705664
C        -2.60682118610626   -0.49479472665060    0.40894079211171
N        -1.61652680658599    0.07797682336256    1.12976575523890
C        -1.89702246193059    1.13962632033353    1.88931673909880
C        -3.16500450168458    1.68617466727454    1.98278119238701
C        -4.19635636819253    1.10411410374279    1.25415409935511
C        -3.91314765599829    0.00548895644998    0.46274367979840
H        -4.70663727910318   -0.46191522641546   -0.09995911044444
H        -3.34061755351305    2.54602111246780    2.61433224356997
H        -1.05488350127630    1.55447875063048    2.42290206065114
Ir        0.42150000000000   -0.81650000000000    0.91329999999999
H         0.87260000000000   -2.23030000000000    1.54050000000000
B         0.49204288749487    0.42706612031396   -0.78771340162235
O         0.17639959805003   -0.03340622242494   -2.05984935916682
C         0.01044431906792    1.09760369830312   -2.94158958041621
C         0.48899621494787    0.74848140889695   -4.34709974119577
H         1.50820433091406    0.37235905911431   -4.32674052302313
H         0.44360463933377    1.62396166604609   -4.99558801244461
H        -0.14954763115567   -0.02744170852364   -4.76806233487989
C        -1.49402059737242    1.39947958661630   -2.96820093658275
H        -1.73312774337512    2.21245391643832   -3.65213309279455
H        -2.02399508679793    0.50240256590446   -3.28851883199136
H        -1.84116488811789    1.65425686294344   -1.96670342898018
C         0.83211246787470    2.20820435339959   -2.21110153510094
O         0.75598503497784    1.78271087917649   -0.83358635297665
C         2.31463274261624    2.19202206051259   -2.59907061832906
H         2.71927793875935    1.19295802617091   -2.44968744017848
H         2.46619342679936    2.51379989255733   -3.62873451937584
H         2.85699640914668    2.86662165607856   -1.93761615560305
C         0.27990304472510    3.62406174441614   -2.33817511510381
H        -0.72346718339064    3.69255025283178   -1.92587476282879
H         0.91908942358781    4.30794064544172   -1.78123229126867
H         0.26201121736332    3.93700273078401   -3.38225236602519
B         1.56056971474007    0.62284941035416    1.85455717359091
O         2.92496901291211    0.58142853032957    2.12073464095010
C         3.36286398629280    1.89763787034144    2.50645236193432
C         4.53168144868672    1.79076817533743    3.47806267980798
H         4.27738490100283    1.16041168050036    4.32646356029372
H         5.38665034346876    1.34612751037506    2.97020507140741
H         4.81658425599797    2.77900192843145    3.83764749953383
C         3.79962453579101    2.58232740527207    1.20784634745145
H         4.20195295483277    3.57713169592177    1.39195159770769
H         4.56302624237321    1.96829199445310    0.73258993519081
H         2.95137196813836    2.63361814952506    0.52647553037762
C         2.05134886696329    2.50784752091076    3.09027976909817
O         1.03728622721243    1.81329700728315    2.33713962367166
C         1.89217588600001    4.00961585363971    2.89104982318858
H         1.86696875326242    4.25333789659790    1.83266554908978
H         0.95474235706329    4.33796901642773    3.33810536618862
H         2.71305098314043    4.54484726094835    3.36757627390362
C         1.83237764496258    2.13850253919322    4.56180988049744
H         1.93450711182210    1.06244362122161    4.70064363701721
H         2.53325805666447    2.65872894714654    5.21194185416372
H         0.81821730480341    2.41714833160090    4.84780351289669
B         2.27819999999999   -1.33090000000001    0.17410000000000
O         2.90147490402635   -2.56425869256398    0.37652976814910
C         4.26818405840894   -2.48310485084793   -0.08534320087850
C         5.12171016588949   -2.05932691620161    1.11477270798132
H         4.77322967027643   -1.09700498364364    1.48457392610967
H         4.99537829472542   -2.79109126816576    1.91096809426931
H         6.17782605853297   -2.00087128998298    0.85845338876204
C         4.72176181287424   -3.84581133843652   -0.59365131134990
H         4.75190356660770   -4.54898111210588    0.23758985515489
H         5.71956876110098   -3.77482421901810   -1.02523673091469
H         4.03581875587566   -4.23397846999348   -1.34174988659340
C         4.16538369462566   -1.35754713714950   -1.16152824621757
O         3.07305610434967   -0.56244800141564   -0.66175434601163
C         5.40879531293495   -0.48937243109142   -1.31756377691542
H         6.26501564863171   -1.09485804389699   -1.61377566041165
H         5.23073454952241    0.26264386810390   -2.08497399189777
H         5.63679469881387    0.02385218077145   -0.38783896963976
C         3.72769967344969   -1.89668579372997   -2.52922852366909
H         2.83615405519051   -2.51288816035544   -2.42027552554645
H         3.46977430885924   -1.05522902846881   -3.17079421843139
H         4.51775308638879   -2.47360224915616   -3.00714654000437
H        -3.38658341393606   -3.99385961489770   -2.57878553478997
H        -5.20156467810721    1.50192859870759    1.30040197134240
C         0.23590000000002   -1.68139999999997    2.96030000000007
C        -1.00012509674743   -2.09590392176247    3.48679567743013
C         1.30378051427634   -1.84068623584150    3.87823916728147
C        -1.15851378826590   -2.21578895392166    4.87153130430679
C        -2.15985758184093   -2.59523556209219    2.67601551997863
N         1.15003357384631   -1.94781482277532    5.19575188807968
C         2.71036607483342   -2.10787743851652    3.44823514568971
C        -0.07138168183565   -2.04834256221640    5.69762542457566
H        -2.11333871543311   -2.51951536125728    5.27771710333508
H        -2.60875869361932   -3.44746041102185    3.18737304343170
H        -1.83119288584115   -2.92845981804555    1.69934021148444
H        -2.93266716040138   -1.83711331435769    2.55966373041236
H         3.15892760995673   -1.22685364410641    3.00653335329265
H         2.71165658184684   -2.88883626271755    2.69174880968956
H         3.28638136582691   -2.43236173155154    4.31126465106529
H        -0.13744806227618   -2.12200825466005    6.77574728384935
101
 energy: -143.028042261241 gnorm: 0.039000594831 xtb: 6.4.1 (1a32961)
N        -0.94393094506674   -2.05770005414810   -0.31350753654677
C        -2.22021013557456   -1.64502112861547   -0.42504037088617
C        -3.12522970924083   -2.33379766465125   -1.23926063194946
C        -2.70734878172026   -3.44567589943759   -1.93840161713461
C        -1.38740848904070   -3.86349751239029   -1.80402582742901
C        -0.55265655547451   -3.13603706784642   -0.98379867274063
H         0.47644714563428   -3.42624644296675   -0.83124384249149
H        -1.02226628552852   -4.73687053279683   -2.31870844257779
H        -4.14864918252105   -2.01021850718399   -1.32339038277914
C        -2.58965525133064   -0.48266014764018    0.37942079082602
N        -1.60468574765585    0.07688554447955    1.11143708116443
C        -1.89262623372993    1.12818643274869    1.87125520259066
C        -3.15635621739647    1.67395182282025    1.97079232887127
C        -4.18731196543193    1.09599023892371    1.23901532138972
C        -3.89703927733674    0.01360561750125    0.43539197876160
H        -4.68838837627185   -0.45494449388707   -0.12440794114562
H        -3.33484505481900    2.52147353031922    2.61258789249079
H        -1.05840127503939    1.54143309232740    2.41514147523672
Ir        0.42150000000000   -0.81649999999999    0.91329999999998
H         0.87260000000000   -2.23029999999999    1.54050000000000
B         0.50053626929381    0.44267478432224   -0.76125610817345
O         0.15909170925551   -0.01929956253624   -2.02476357796474
C         0.00673652099077    1.09742942467383   -2.91812103476292
C         0.48861926889858    0.74383184780251   -4.32193523916601
H         1.50412836431887    0.36477611443116   -4.30443508032669
H         0.44170407995909    1.62273723551775   -4.95970990186096
H        -0.15390690242789   -0.02577377448330   -4.74123669384057
C        -1.49629964676026    1.40720789518774   -2.96423078101692
H        -1.71735293966963    2.21608920034761   -3.65363666298429
H        -2.02481952250813    0.51240239907952   -3.28591754080281
H        -1.84623025306920    1.66470770304259   -1.96690594618253
C         0.82443005922698    2.21169045347020   -2.19587310095226
O         0.76226745359940    1.79172122408014   -0.82296737662526
C         2.30390110270120    2.20062062542594   -2.59549136604503
H         2.70513744085463    1.20305556760625   -2.43945348092561
H         2.44140365675898    2.51514193237069   -3.62585154793827
H         2.84658245341468    2.87915279064209   -1.94241739742160
C         0.26891923140293    3.62556088718083   -2.33262820467945
H        -0.73004870464081    3.69886527779886   -1.91663234187528
H         0.91283283590164    4.30791474938348   -1.78494307162153
H         0.25151762558666    3.92157943458380   -3.37784166691142
B         1.55896103595274    0.63568068676452    1.86004692919210
O         2.92171896571669    0.60479900308075    2.09308990052828
C         3.35980643479760    1.90725117046663    2.50331080961251
C         4.52582084203564    1.79297370960402    3.47854198693213
H         4.27194490814837    1.15537389174468    4.31840881054174
H         5.37758345687666    1.35530387978505    2.96558220269241
H         4.80318883150091    2.77838048056469    3.84061672931285
C         3.80380626400310    2.60985788991948    1.21702670952047
H         4.20408016220237    3.59989737546180    1.40883695758568
H         4.56511767383779    1.99699332101395    0.74208793507594
H         2.95464177499728    2.65514041965803    0.53988602526600
C         2.05114515187391    2.51230057454115    3.09162802980568
O         1.03646020172724    1.81028033366226    2.35566572458551
C         1.89066281396431    4.01414776826961    2.89529999407198
H         1.85709775110465    4.25718398795927    1.83944843386620
H         0.95852157662387    4.33742357976547    3.34956250843612
H         2.71543880025393    4.53949819587237    3.36722287769785
C         1.84539372225297    2.14678024422414    4.56675627919846
H         1.94940521283474    1.07182233729325    4.69738904973332
H         2.54924027572108    2.66823117936686    5.20659982723417
H         0.83369883285686    2.42144586252926    4.85605537754972
B         2.27819999999998   -1.33090000000001    0.17410000000000
O         2.90822306172449   -2.55123091849070    0.38201631302566
C         4.26317715308684   -2.48011945124814   -0.09595817256059
C         5.13763080278306   -2.06142078139963    1.09038073722320
H         4.79380287243630   -1.09921358495161    1.45762756928096
H         5.01956371082614   -2.78887884967410    1.88750460243801
H         6.18492851594701   -2.00913441321012    0.81219002018190
C         4.71488834263999   -3.84253243231812   -0.60827824237612
H         4.74882307511928   -4.53744350749893    0.22561046129058
H         5.70801774639578   -3.76335158229604   -1.03967793921230
H         4.02787709987283   -4.23374275189305   -1.34978397135405
C         4.15945627508778   -1.35366898816869   -1.16600376304381
O         3.05924076533065   -0.57112665628223   -0.67126226193044
C         5.40316651918397   -0.48563583987683   -1.31872732673565
H         6.25133678893385   -1.09808115660145   -1.60988805322517
H         5.22627170996989    0.26046349190616   -2.08774239674905
H         5.62794205581098    0.02864692585017   -0.39189436069822
C         3.73475090647103   -1.89414244442804   -2.53743707576859
H         2.84514629433098   -2.50824195390594   -2.42603987495261
H         3.47925000617711   -1.05480211276725   -3.17880090627956
H         4.53107747651561   -2.46590929533982   -3.00267962153509
H        -3.39411191000786   -3.98652857950630   -2.57058698355890
H        -5.19345546727063    1.48211669217113    1.29952604628617
C         0.23590000000006   -1.68139999999993    2.96030000000018
C        -1.00373422157026   -2.08626429216458    3.48559554134588
C         1.30180089663006   -1.82237476732674    3.89023203966341
C        -1.16801636821090   -2.18970738611633    4.87247617799889
C        -2.16238773157893   -2.58075577712121    2.66823079178135
N         1.13748089252094   -1.91408181075913    5.20368651122415
C         2.71230274498229   -2.07844629325085    3.46626535381583
C        -0.08412095793262   -2.01185975232447    5.69967573341453
H        -2.12526566620643   -2.48407199634276    5.27868892175971
H        -2.61570719799015   -3.42934719608858    3.18103356318870
H        -1.83201145885237   -2.91328306937371    1.69208612328460
H        -2.93147191026757   -1.82018634120488    2.55050628732829
H         3.15434943091921   -1.19878212369354    3.01866517542721
H         2.72197921451748   -2.86487720096294    2.71675353458205
H         3.28700372754703   -2.39073629973402    4.33353144476038
H        -0.15636133867167   -2.06997116300934    6.77853753714284
101
 energy: -143.030021401478 gnorm: 0.037471663345 xtb: 6.4.1 (1a32961)
N        -0.92976216260604   -2.04108964192544   -0.34528973924426
C        -2.20543474335288   -1.62473007354059   -0.45586049172196
C        -3.11716306537334   -2.31539074945102   -1.26240144333834
C        -2.70989572826518   -3.43550057582125   -1.95256861285897
C        -1.38803874848418   -3.85358995382334   -1.82471428725972
C        -0.54698537797482   -3.12039352302200   -1.01573669185074
H         0.48211676136206   -3.41486154629991   -0.86974170481915
H        -1.02974743587157   -4.73189012729952   -2.33384273606341
H        -4.13987517625005   -1.98919620845435   -1.34060381961678
C        -2.57314012189145   -0.46967854917222    0.35075922084345
N        -1.59127386262551    0.08108740077574    1.09426944771992
C        -1.88547419463200    1.12449242946399    1.86049264520308
C        -3.14987925423595    1.66624140544485    1.96507830047866
C        -4.17982380971771    1.09239001069322    1.22545463033708
C        -3.88229403340034    0.02418564985125    0.40738371283663
H        -4.66888886226736   -0.43909071736915   -0.16262267095213
H        -3.33207997071641    2.50338565911758    2.61781396325828
H        -1.05717688972879    1.53604749623553    2.41496173598642
Ir        0.42150000000001   -0.81649999999998    0.91329999999997
H         0.87260000000000   -2.23029999999999    1.54050000000000
B         0.48847488801516    0.46404746241202   -0.73525250509433
O         0.13755509411824   -0.00495770624282   -1.99329606323627
C        -0.00210545737381    1.10099314006581   -2.89437703729756
C         0.48680885659644    0.73717755281883   -4.29417563091675
H         1.49971401828194    0.35253837317305   -4.27258258047047
H         0.44529948895448    1.61697073437636   -4.92988382975456
H        -0.15955761967091   -0.02883947378023   -4.71311680916913
C        -1.50420628026120    1.41829531618221   -2.95858932858060
H        -1.70896600046605    2.22476676188722   -3.65467209497242
H        -2.03236373615560    0.52464408630898   -3.28277622983497
H        -1.86317520257875    1.68178838465789   -1.96642493469484
C         0.81601676488132    2.21874823791793   -2.17820481720066
O         0.76560516509124    1.80659152242210   -0.80669116781544
C         2.29322678015522    2.21048476866234   -2.59010183147486
H         2.69641380932361    1.21495008685959   -2.42776279188745
H         2.41859061528970    2.51646714498271   -3.62384719214588
H         2.83769236996605    2.89665702689894   -1.94714199764966
C         0.25742251774581    3.63159889490939   -2.32359860830041
H        -0.73906001801668    3.70853285187963   -1.90321892062901
H         0.90511969148359    4.31874900622434   -1.78710069300532
H         0.23516941374221    3.91286023131699   -3.37219261300181
B         1.55763246271709    0.64771671861338    1.85939393844297
O         2.92116207035558    0.62613130469870    2.06368096017866
C         3.35681781021785    1.91871206216628    2.49777965820462
C         4.52137917912255    1.79323700442356    3.47567854822083
H         4.26723306540450    1.14543920735461    4.30722576828184
H         5.37455156753927    1.36428003098351    2.95844191672516
H         4.79293502992889    2.77585635401732    3.84810026745980
C         3.80726472607193    2.64289100629722    1.22391716670202
H         4.20331757192767    3.63055578166535    1.43132127613810
H         4.57275777692187    2.03742380084861    0.74651411183338
H         2.96073689200674    2.69259391687924    0.54449929503753
C         2.04895838843751    2.51639291705409    3.09583478702760
O         1.03163063388507    1.80737236344785    2.37480159992663
C         1.88434531534565    4.01909051798138    2.90093671273386
H         1.84039161000814    4.26357433973313    1.84597755302745
H         0.95743996822556    4.34100956827549    3.36582078786337
H         2.71495783751758    4.54047876075448    3.36554859200254
C         1.85974224378542    2.15509452942523    4.57557418681398
H         1.96697803718424    1.08065788635070    4.70467464969641
H         2.56913690559168    2.68003626545697    5.20513968733954
H         0.85020695388947    2.42791922058110    4.87248766125941
B         2.27819999999996   -1.33090000000003    0.17410000000000
O         2.91523699755685   -2.54210236497739    0.39156260676420
C         4.25943288949731   -2.47628103183528   -0.10578953190271
C         5.15599118153056   -2.06210925222440    1.06730590615032
H         4.82160528593481   -1.09832242872648    1.43820101880832
H         5.04800002356654   -2.78869529949012    1.86593943920954
H         6.19722823106045   -2.01606518575818    0.76684605935974
C         4.70453294425283   -3.84022889024405   -0.62422017392451
H         4.74532458057793   -4.53304867533803    0.21051508607506
H         5.69385448140703   -3.75722468480203   -1.06202618859889
H         4.01284057830557   -4.23258756847857   -1.36025538639145
C         4.15086588552100   -1.34952625555214   -1.17474500972891
O         3.04405637712907   -0.57584078349213   -0.68547250921603
C         5.39352027679557   -0.47764875180464   -1.32326758555244
H         6.24070526040560   -1.09375387324173   -1.60748412880077
H         5.21960456756854    0.26385113665512   -2.09665997796211
H         5.61396572760810    0.04044723089054   -0.39798151250253
C         3.73920019781827   -1.89171303106317   -2.55051644829924
H         2.85106806452557   -2.50781542257042   -2.44409857883082
H         3.48824612704989   -1.05338819720390   -3.19436058080190
H         4.54305346961985   -2.46044770564334   -3.00465950675053
H        -3.40288218784669   -3.98164261478376   -2.57253829453485
H        -5.18807839217406    1.46991344338391    1.29418944310932
C         0.23590000000010   -1.68139999999987    2.96030000000032
C        -1.00785359131147   -2.07251683675827    3.48327867082780
C         1.29853459475168   -1.79896283370982    3.90039496649038
C        -1.18140812043777   -2.15429566420755    4.87127189068866
C        -2.16554838873470   -2.56339500012667    2.66167164154751
N         1.12297675806701   -1.86949149829294    5.21202332361727
C         2.71520113679380   -2.04162420634102    3.48707635165733
C        -0.10198626121674   -1.96284884058973    5.70132347434305
H        -2.14276388756060   -2.43631648864930    5.27673399468710
H        -2.62575422863678   -3.40856191363221    3.17396288218019
H        -1.83253654801665   -2.89754903161471    1.68687459142772
H        -2.92970756062288   -1.79827523669000    2.54027824878250
H         3.14950705294731   -1.16227142016175    3.03100261439206
H         2.73850010427358   -2.83638413773489    2.74657198862942
H         3.28902074315229   -2.33598135498632    4.36167530289714
H        -0.18242340531847   -2.00021610442443    6.78116195520209
101
 energy: -143.032097602171 gnorm: 0.036342501950 xtb: 6.4.1 (1a32961)
N        -0.91742352151115   -2.03594042849315   -0.36806373838212
C        -2.19134436926292   -1.61073571637094   -0.48311450975207
C        -3.10638492756379   -2.29596979920381   -1.29197077697250
C        -2.70849716666087   -3.42305107094443   -1.97557428959658
C        -1.38552624164887   -3.84364967967159   -1.85292926918585
C        -0.53897294301879   -3.11114191668633   -1.04793754977577
H         0.49237666170321   -3.40583638707983   -0.91384471720050
H        -1.03296838367551   -4.72515126686053   -2.36049991241284
H        -4.12629487823362   -1.96058277313408   -1.37144799108026
C        -2.55701914694060   -0.45806486949568    0.32407567829466
N        -1.57901913559825    0.08026501964884    1.08576606061292
C        -1.87814802884416    1.11954895673901    1.85769174325006
C        -3.14356875915227    1.65913463927434    1.96159645036694
C        -4.17018122155331    1.09467002561377    1.20671150245950
C        -3.86498340388054    0.04225395709314    0.37158015428979
H        -4.64503244441904   -0.40962526600117   -0.21758937589537
H        -3.33008092222480    2.48542671774150    2.62693094353855
H        -1.05454733686300    1.52983201962068    2.42072517971117
Ir        0.42150000000001   -0.81649999999998    0.91329999999996
H         0.87260000000000   -2.23029999999998    1.54050000000000
B         0.49218079420833    0.48607054130855   -0.71015480541978
O         0.11368479641267    0.01318422389355   -1.95936316769686
C        -0.01551841796962    1.10917223429777   -2.86670100860222
C         0.48115555589835    0.72898956655174   -4.26057703521877
H         1.49049783863836    0.33460301810701   -4.22765557617411
H         0.45246467359313    1.60520237354695   -4.90264523903798
H        -0.16941163700828   -0.03485953733413   -4.67801611326016
C        -1.51612495947448    1.43539231515120   -2.94970310013614
H        -1.70576023720290    2.23899768645231   -3.65374729996880
H        -2.04517770719406    0.54271492754117   -3.27609952365487
H        -1.88813830889426    1.70765327987008   -1.96418686712894
C         0.80661456141170    2.23167254303277   -2.15878929957907
O         0.77051512232310    1.82576863919130   -0.78743413881249
C         2.28144083805406    2.22648535869389   -2.58311538221782
H         2.69057551821233    1.23438756702911   -2.41226505086446
H         2.39479764570768    2.52052547675067   -3.62194909758452
H         2.82800275340627    2.92395851098069   -1.95338442143899
C         0.24189254538461    3.64248664371000   -2.31102761821504