15
 energy: -19.058153386433 gnorm: 0.022798708015 xtb: 6.4.1 (1a32961)
C         0.99025000000000   -0.00859000000000    0.00096000000000
C         2.48996000000000   -0.00075000000000   -0.01303000000000
C         0.27579000000000   -1.21247000000000    0.00251000000000
C        -1.12017000000000   -1.20498000000000    0.00335000000000
C        -1.81273000000000    0.00485000000000    0.00372000000000
C        -1.11007000000000    1.20805000000000    0.00563000000000
C         0.28585000000000    1.20207000000000    0.00429000000000
H         2.89746000000000   -1.01701000000000    0.00127000000000
H         2.87381000000000    0.52704000000000    0.86591000000000
H         2.85446000000000    0.49456000000000   -0.91874000000000
H         0.80048000000000   -2.16460000000000    0.00088000000000
H        -1.66758000000000   -2.14377000000000    0.00191000000000
H        -2.89951000000000    0.00944000000000    0.00175000000000
H        -1.64853000000000    2.15223000000000    0.00696000000000
H         0.82264000000000    2.14785000000000    0.00353000000000
15
 energy: -19.059129954723 gnorm: 0.004841925704 xtb: 6.4.1 (1a32961)
C         0.98474987928279   -0.01043588256918   -0.00281286656430
C         2.48426737704770   -0.00247636642252   -0.01192511303041
C         0.27025857978262   -1.20295153616315   -0.00065744926728
C        -1.11638072797522   -1.19690568965592    0.00290262577640
C        -1.80634889676060    0.00428713414141    0.00468066535588
C        -1.10440570426498    1.19901521714831    0.00495083672331
C         0.28126986633258    1.19044063100408    0.00138565235168
H         2.88309914065603   -1.01631957967479    0.00252747360578
H         2.86828642349015    0.53143963509110    0.85742479055394
H         2.85505237966568    0.50023978283282   -0.90544564279460
H         0.79724421624257   -2.14776969200106   -0.00118209092493
H        -1.65973465817372   -2.13230762773929    0.00398062183573
H        -2.88805778518535    0.00935317544609    0.00576742657693
H        -1.63806016414051    2.14006507874032    0.00754517387073
H         0.82087007400025    2.12824571982178    0.00175789593113
15
 energy: -19.059163342241 gnorm: 0.001373637457 xtb: 6.4.1 (1a32961)
C         0.98418821194166   -0.01075079398585   -0.00373675490470
C         2.48365911364015   -0.00347520444744   -0.01135849924564
C         0.26920043094764   -1.20093330113990   -0.00152280680321
C        -1.11570896618213   -1.19548497101972    0.00286851088895
C        -1.80601427253228    0.00409284482929    0.00537131200495
C        -1.10341125409262    1.19773453091583    0.00438193485252
C         0.27992932992533    1.18841200856282    0.00017603972204
H         2.87869612805442   -1.01657867673943    0.00289304452118
H         2.86503641909869    0.53172723684640    0.85728646227799
H         2.85521615941242    0.50212955776441   -0.90200432038711
H         0.79850023771080   -2.14349765784141   -0.00347514213108
H        -1.65724402616987   -2.13068831481401    0.00460341571467
H        -2.88641813532752    0.00929704444470    0.00861622139992
H        -1.63560416336206    2.13832475183310    0.00736443612583
H         0.82208478693536    2.12361094479120   -0.00056385403629
15
 energy: -19.059165351149 gnorm: 0.000316544165 xtb: 6.4.1 (1a32961)
C         0.98438140029050   -0.01078740329681   -0.00474618971214
C         2.48398516153881   -0.00380341650083   -0.01094920841296
C         0.26891836197824   -1.20080284851150   -0.00250857962475
C        -1.11597733259922   -1.19547817782315    0.00297909994858
C        -1.80662622658554    0.00397467406277    0.00630813807222
C        -1.10351992176710    1.19788658048591    0.00418935141027
C         0.27940824037273    1.18851080299831   -0.00105321556400
H         2.87798430217335   -1.01662310650617    0.00259109006606
H         2.86358286484467    0.53075837478088    0.85886254777837
H         2.85616849829009    0.50337118496197   -0.90039071413418
H         0.79958959829450   -2.14273381753918   -0.00461565217119
H        -1.65681057007758   -2.13103686574557    0.00504235053050
H        -2.88678175845712    0.00936428671783    0.01063488235650
H        -1.63551327431785    2.13851882401692    0.00689628452892
H         0.82332065602152    2.12280090789862   -0.00234018507220
15
 energy: -19.059165589678 gnorm: 0.000138699874 xtb: 6.4.1 (1a32961)
C         0.98437942077576   -0.01080244276565   -0.00456401565143
C         2.48397481257680   -0.00371928602057   -0.01091115065382
C         0.26890705504966   -1.20092522412933   -0.00217838282695
C        -1.11609397367685   -1.19553115721745    0.00307084319508
C        -1.80666211288625    0.00394078170413    0.00614250259532
C        -1.10356061719279    1.19796381392206    0.00379911644265
C         0.27936280273964    1.18868884860552   -0.00125373380456
H         2.87824312638843   -1.01659235014595    0.00155863951387
H         2.86355277561077    0.52970698255418    0.85969612052994
H         2.85628891994296    0.50434663642394   -0.89983544062011
H         0.79967939759805   -2.14288060356495   -0.00468380807525
H        -1.65690961225356   -2.13120997078674    0.00528084554932
H        -2.88688625346255    0.00947856994284    0.01114646108375
H        -1.63578749858807    2.13857786819821    0.00664182288720
H         0.82362175737800    2.12287753327976   -0.00300982016501
